11
gdb 17159	4.44356	2.01322	1.63487	3.7216	55.62	-0.2789	-0.0274	0.2515	735.715	0.070986	-397.27804	-397.272235	-397.271291	-397.308041	22.013	
N	-0.0288553537	-1.0976129127	 0.0670500372	-0.331877
C	-0.0421697609	 0.0581378207	 0.0673232359	 0.15702
C	-0.0330222405	 1.4930520711	 0.0295952686	 0.366521
O	-0.7138795973	 2.2665119923	 1.0489720393	-0.329364
C	-0.1586282327	 3.3029843724	 0.1898959156	 0.025077
C	 1.1536455294	 2.5195050111	-0.1335282341	 0.010993
O	 1.0087184565	 2.6403221421	-1.5686220741	-0.306874
C	-0.3656353008	 2.5028361332	-1.1357753132	 0.010968
H	-0.3319032512	 4.3477261548	 0.4351773975	 0.129385
H	 2.144885461	 2.530290319	 0.3157306995	 0.134079
H	-1.1687586899	 2.4939349259	-1.8702272423	 0.134073
149.0683	178.753	418.874	479.5918	537.6806	547.9911	629.2178	757.2151	775.5534	815.2195	816.4376	889.8842	904.627	928.7771	1024.4991	1051.6988	1106.0784	1127.8448	1160.0005	1160.4921	1246.6097	1273.792	1349.3374	2358.004	3149.827	3150.7937	3171.4002
N#CC12OC3C1OC23	N#C[C@@]12O[C@H]3[C@@H]1O[C@@H]23	
InChI=1S/C5H3NO2/c6-1-5-3-2(8-5)4(5)7-3/h2-4H	InChI=1S/C5H3NO2/c6-1-5-3-2(8-5)4(5)7-3/h2-4H/t2-,3-,4+,5+
