11
gdb 21505	5.32554	1.61254	1.23776	2.3574	53.03	-0.2801	-0.0717	0.2084	867.6568	0.072788	-430.710071	-430.703379	-430.702435	-430.74142	23.615	
N	-0.0525873304	 1.3217231814	 0.0070359343	-0.536812
C	 0.0526285504	-0.0288269988	 0.0012463097	 0.349562
O	 1.0988392654	-0.6484870932	-0.0097264622	-0.351111
C	-1.2523508041	-0.756353802	 0.0089342383	 0.255084
N	-2.4241780536	-0.1784535772	 0.020849041	-0.162191
O	-3.3377197586	-1.1847267522	 0.0243837763	-0.143903
N	-2.7251518149	-2.4137462881	 0.0142573783	-0.062304
C	-1.4469237776	-2.1653748373	 0.0048054081	-0.08476
H	 0.7904969783	 1.8711088743	 0.0028151289	 0.273471
H	-0.9502834874	 1.7764995345	 0.0166934209	 0.284705
H	-0.7084041676	-2.9502660614	-0.0044562437	 0.178258
74.9459	186.4263	204.188	265.5672	392.871	504.6392	561.7035	653.1292	663.8565	671.1578	804.5346	871.5439	926.5851	948.7757	1015.8595	1063.7536	1098.1049	1155.7756	1316.0349	1456.0718	1474.337	1596.7186	1617.2186	1798.0182	3289.6528	3600.262	3738.376
NC(=O)C1=NON=C1	NC(=O)c1nonc1	
InChI=1S/C3H3N3O2/c4-3(7)2-1-5-8-6-2/h1H,(H2,4,7)	InChI=1S/C3H3N3O2/c4-3(7)2-1-5-8-6-2/h1H,(H2,4,7)
