10
gdb 23817	3.37132	2.29917	1.36695	2.3205	52.92	-0.267	-0.081	0.186	773.906	0.059838	-458.537149	-458.531185	-458.530241	-458.567477	21.793	
F	-0.0247423924	 0.0302057511	 0.0043019741	-0.04585
C	-0.0241110807	 1.3537344949	 0.011116643	 0.110092
C	-1.1872097954	 2.0345377862	 0.0296984461	-0.010137
O	-1.2739762791	 3.3770318691	 0.0377160496	-0.217178
N	-0.1302416001	 4.1534733313	 0.0267940988	-0.032565
C	 0.9973840147	 3.5324864575	 0.0089711812	-0.055798
C	 1.2369823711	 2.0710181834	-0.0014614781	 0.263323
O	 2.349653396	 1.5786756716	-0.0186959473	-0.351714
H	-2.1633218319	 1.5645611566	 0.0399401271	 0.172507
H	 1.8688152979	 4.1819291384	 0.0009153757	 0.16732
129.0285	285.7195	306.8323	398.2843	433.003	530.6855	559.6952	593.2264	755.4282	767.2792	865.9357	910.1144	912.3595	953.8561	1150.3477	1214.1254	1282.6079	1316.3059	1427.1716	1622.025	1677.1715	1771.1242	3184.937	3218.5272
FC1=CON=CC1=O	Fc1concc1=O	
InChI=1S/C4H2FNO2/c5-3-2-8-6-1-4(3)7/h1-2H	InChI=1S/C4H2FNO2/c5-3-2-8-6-1-4(3)7/h1-2H
