10
gdb 21784	5.94905	1.63219	1.28079	4.2299	56.01	-0.2741	-0.1343	0.1397	832.7419	0.059026	-409.574782	-409.568359	-409.567415	-409.606006	21.696	
O	-0.06105784	-0.0288465993	-0.0024796331	-0.207093
C	-0.0111386337	 1.1692060533	 0.0076861125	 0.118207
C	 1.2675843495	 1.9605512459	 0.0006924313	 0.264514
C	 1.2635812512	 3.34911574	 0.0117637074	-0.001451
N	 2.4075556743	 4.0259121458	 0.0050720149	-0.154282
N	 3.538898988	 3.335960317	-0.0121261537	-0.035441
N	 3.5477281481	 2.0112028119	-0.0227476896	-0.04837
N	 2.4294734757	 1.3063750663	-0.0165995372	-0.194789
H	-0.9244479068	 1.8029817657	 0.0232447458	 0.100678
H	 0.3481931937	 3.9357586533	 0.0257287017	 0.158027
73.8711	154.124	207.8579	290.803	410.7416	437.1188	674.3126	705.4279	836.2634	837.0555	878.7075	953.2349	1037.1801	1065.5102	1087.9591	1220.7363	1258.9215	1355.4805	1422.3779	1515.5895	1584.4242	1834.783	2900.8844	3166.0455
O=CC1=CN=NN=N1	O=Cc1cnnnn1	
InChI=1S/C3H2N4O/c8-2-3-1-4-6-7-5-3/h1-2H	InChI=1S/C3H2N4O/c8-2-3-1-4-6-7-5-3/h1-2H
