10
gdb 21535	2.44191	2.28732	1.18104	1.4005	60.76	-0.2641	-0.0954	0.1687	892.622	0.059192	-409.658159	-409.650174	-409.64923	-409.691054	26.542	
N	-0.101245665	 1.4626095935	 0.008403909	-0.564356
C	 0.2964160055	 0.1652317932	-0.0003160001	 0.4048
C	-0.8354853115	-0.8162297861	 0.0013714724	 0.022687
N	-0.4721120264	-2.0826765007	-0.0069138084	 0.211993
N	-0.0968156104	-3.1428556595	-0.0138734817	-0.159534
O	 1.4509925573	-0.2098450271	-0.0086356284	-0.375611
C	-2.2079320414	-0.5008303398	 0.0106576633	 0.247195
N	-3.3154860546	-0.1518171367	 0.0185466244	-0.348164
H	 0.6131520189	 2.1709909477	 0.0067230413	 0.277672
H	-1.0689952725	 1.7367336356	 0.013772208	 0.283318
80.4917	135.5697	145.982	156.7825	179.6672	375.3272	455.3277	484.0822	529.4549	538.1159	568.2295	615.6958	696.9587	753.2875	1085.3242	1167.6125	1331.0553	1356.5482	1618.047	1794.7825	2244.0827	2322.8076	3606.5223	3740.3679
NC1=C(N=NO1)C#N	NC(=O)[C]([N][N])C#N	
InChI=1S/C3H2N4O/c4-1-2-3(5)8-7-6-2/h5H2	InChI=1S/C3H2N4O/c4-1-2(7-6)3(5)8/h(H2,5,8)
