10
gdb 21757	5.73749	2.24179	1.61195	3.1573	53.21	-0.2715	-0.0431	0.2284	686.7226	0.062659	-413.405534	-413.400525	-413.399581	-413.434634	19.093	
O	-0.1352128531	 1.2670540431	 0.0102340921	-0.237066
N	 1.1718241274	 1.8822807837	 0.0007826886	-0.121928
C	 2.0480395013	 0.9051662507	-0.0126584557	-0.114175
C	 1.4191637514	-0.3702826287	-0.0133333529	 0.069586
C	 0.0957942888	-0.0282374332	 0.0011707675	 0.562833
O	-0.7339931829	-1.0493504371	 0.0037870523	-0.237066
N	 0.1111839949	-2.2208485214	-0.0106046725	-0.121928
C	 1.3511710988	-1.7907000448	-0.0201376466	-0.114175
H	 3.095216407	 1.1732395681	-0.0213011245	 0.156959
H	 2.1372715063	-2.5326117103	-0.0315817884	 0.156959
228.8981	335.2049	466.5296	606.1978	612.4294	685.3349	747.8889	767.1581	796.7205	799.9266	903.1559	909.4047	943.5808	990.6413	1194.2136	1210.4171	1238.9505	1420.8198	1459.7087	1481.6863	1601.577	1609.6475	3246.993	3247.0002
O1N=CC2=C1ON=C2	o1ncc2c1onc2	
InChI=1S/C4H2N2O2/c1-3-2-6-8-4(3)7-5-1/h1-2H	InChI=1S/C4H2N2O2/c1-3-2-6-8-4(3)7-5-1/h1-2H
