10
gdb 21386	5.73061	2.27085	1.62637	2.412	54.41	-0.2664	-0.0688	0.1976	678.8484	0.06324	-409.59246	-409.587259	-409.586315	-409.62163	19.775	
N	 0.0145961769	 1.3468144047	 0.0096519766	-0.315105
N	 1.2804377575	 1.8229566149	 0.0000591021	-0.187771
C	 2.1094660886	 0.7747140438	-0.013852924	-0.143108
C	 1.3471861511	-0.4115575769	-0.0133753712	 0.306894
C	 0.0311645506	-0.0088426747	 0.0016700576	 0.376928
N	-0.7707167804	-1.1074751605	 0.0030848359	-0.212222
N	-0.0487567626	-2.1398684187	-0.0097608541	-0.018676
O	 1.3775358611	-1.7415581392	-0.0213895563	-0.247338
H	-0.7564413118	 1.9916610391	 0.0208223911	 0.295152
H	 3.175729059	 0.9295859175	-0.0232547977	 0.145246
243.285	357.1874	423.2921	452.4179	546.3858	647.1229	670.1534	698.1185	767.4459	780.9235	855.7855	965.7372	1010.3163	1095.9074	1224.1025	1263.1281	1338.3804	1395.9009	1426.021	1494.4255	1554.6032	1585.9559	3275.8833	3686.8538
N1N=CC2=C1N=NO2	[nH]1ncc2c1nno2	
InChI=1S/C3H2N4O/c1-2-3(5-4-1)6-7-8-2/h1H,(H,4,5)	InChI=1S/C3H2N4O/c1-2-3(5-4-1)6-7-8-2/h1H,(H,4,5)
