11
gdb 123293	2.00918	1.91259	0.97985	1.8394	74.22	-0.2743	-0.0848	0.1895	1075.7212	0.065846	-414.380092	-414.372863	-414.371919	-414.412186	26.135	
C	 0.1147673617	-1.1854105276	-0.0051035097	-0.359367
C	 0.0327166479	 0.0145308577	 0.002523535	 0.248843
C	-0.0810759771	 1.4130337188	 0.0117423834	 0.271795
C	-1.1743778446	 2.2518299209	 0.0320759385	-0.062933
C	-0.5933019462	 3.5532132327	 0.0307429746	-0.031547
N	 0.7112568379	 3.503850427	 0.0115477672	-0.113017
O	 1.0419003582	 2.154613805	-0.0005334236	-0.206327
C	-2.5421257319	 1.900196799	 0.0499551072	 0.195235
N	-3.6668931788	 1.6271157127	 0.0647547025	-0.333545
H	 0.1841659724	-2.2463352404	-0.0117199526	 0.222823
H	-1.0980838995	 4.508072874	 0.0432219577	 0.168041
102.8164	161.8375	187.6513	202.1734	422.1041	467.5196	514.6552	536.2914	628.4544	643.7068	652.0988	656.1346	705.57	760.9658	917.779	931.7922	956.2969	1152.6239	1200.393	1240.8667	1398.1284	1498.4094	1612.7265	2243.2087	2354.9609	3259.8026	3493.9158
C#CC1=C(C=NO1)C#N	C#Cc1c(cno1)C#N	
InChI=1S/C6H2N2O/c1-2-6-5(3-7)4-8-9-6/h1,4H	InChI=1S/C6H2N2O/c1-2-6-5(3-7)4-8-9-6/h1,4H
