11
gdb 23730	5.78307	1.60811	1.25823	1.9234	58.5	-0.2339	-0.0838	0.1502	844.8743	0.072406	-438.693486	-438.687441	-438.686497	-438.72391	22.577	
F	 0.041985836	 0.0427109565	-0.2989374941	-0.064178
C	-0.0391126768	 1.3389559913	-0.0249102323	 0.253111
C	-1.2270667006	 1.9445661241	 0.1145499829	-0.095887
O	-1.2954537787	 3.2747283695	 0.3956039772	-0.219728
C	-0.1303030207	 4.010891654	 0.5392073742	 0.373112
N	-0.1341618861	 5.2514035596	 0.8006488287	-0.520375
C	 1.1086705331	 3.2482937695	 0.3660916339	-0.019304
N	 1.1568382001	 1.9896792032	 0.1003380809	-0.25647
H	-2.1941353475	 1.4711579323	 0.0243819481	 0.158937
H	-1.0848621216	 5.6123604879	 0.8861822007	 0.23308
H	 2.032324053	 3.8095186721	 0.47516881	 0.157703
94.0894	337.3148	363.7943	364.4995	430.4085	517.0447	528.252	628.0924	748.2985	798.8309	813.6776	840.1659	860.8187	955.6381	962.621	1062.905	1195.9536	1272.2448	1317.4227	1334.0229	1400.291	1614.5642	1693.4522	1730.5122	3183.3638	3242.8999	3491.3694
FC1=COC(=N)C=N1	FC1=COC(=C[N]1)[NH]	
InChI=1S/C4H3FN2O/c5-3-2-8-4(6)1-7-3/h1-2,6H	InChI=1S/C4H3FN2O/c5-3-2-8-4(6)1-7-3/h1-2,6H
