11
gdb 131336	3.69617	1.79191	1.20683	3.1822	56.9	-0.2432	-0.0379	0.2052	891.4097	0.068393	-484.84183	-484.835767	-484.834823	-484.872329	22.966	
O	 0.1025824055	 1.3373062155	 0.1713469495	-0.408293
C	 0.0760132714	 0.0102460138	 0.0569753197	 0.459635
N	 0.070987766	-0.7101204167	-1.0347927288	-0.326537
N	 0.0394515808	-2.0815854249	-0.6924365285	-0.351923
C	 0.0278226031	-2.0644162934	 0.5975979293	 0.501401
O	 0.0000221326	-2.9505866532	 1.6331182438	-0.201556
C	 0.0067917343	-2.1414053674	 2.7374926314	 0.097131
N	 0.0351756301	-0.8683838039	 2.526913139	-0.218037
N	 0.0486677497	-0.8171443139	 1.1454875706	-0.066991
H	 0.1180921029	 1.6942706211	-0.7273940811	 0.326295
H	-0.0119463265	-2.6240712069	 3.7009199251	 0.188875
182.6232	232.3961	294.0918	384.1992	442.3952	579.7679	616.662	666.0877	671.3322	714.2638	729.7267	825.0605	859.8293	943.0462	1012.8679	1097.324	1124.3097	1188.3479	1285.8636	1301.1157	1408.3901	1492.7648	1584.8596	1632.6881	1666.0877	3298.0512	3786.7937
OC1=NN=C2OC=NN12	Oc1nnc2ocnn12	
InChI=1S/C3H2N4O2/c8-2-5-6-3-7(2)4-1-9-3/h1H,(H,5,8)	InChI=1S/C3H2N4O2/c8-2-5-6-3-7(2)4-1-9-3/h1H,(H,5,8)
