11
gdb 23837	5.91664	1.57274	1.24247	3.1384	55.3	-0.2534	-0.0625	0.1909	849.5927	0.072903	-438.712026	-438.706161	-438.705217	-438.742064	22.388	
O	 0.0879835557	 1.3219751877	 0.0991219308	-0.411585
C	 0.0679017656	-0.0225118886	 0.0675018145	 0.461057
N	 0.1019874793	-0.6017105043	-1.1221570971	-0.293672
N	 0.084045187	-1.9353306232	-1.2114232631	-0.244436
C	 0.0327762042	-2.63753167	-0.1095485818	 0.352386
F	 0.0174589559	-3.9575671453	-0.2554870643	-0.06588
C	-0.0057364378	-2.1022225283	 1.1851682613	-0.218564
C	 0.0125179563	-0.7335355414	 1.2796770231	-0.163836
H	 0.1261780275	 1.6137455171	-0.824103442	 0.307722
H	-0.0474372448	-2.7525908259	 2.0501602777	 0.138454
H	-0.0135528889	-0.2075520279	 2.2258487009	 0.138353
147.7916	355.6667	356.3444	456.2689	473.9231	504.4741	516.4592	595.1382	650.2823	782.4309	794.2517	868.6771	876.564	988.0376	1042.1799	1121.2965	1207.5659	1246.3692	1298.215	1350.6467	1441.4558	1491.0365	1618.9462	1642.2483	3207.2709	3221.4658	3745.8731
OC1=NN=C(F)C=C1	Oc1nnc(F)cc1	
InChI=1S/C4H3FN2O/c5-3-1-2-4(8)7-6-3/h1-2H,(H,7,8)	InChI=1S/C4H3FN2O/c5-3-1-2-4(8)7-6-3/h1-2H,(H,7,8)
