10
gdb 23807	3.42891	2.36438	1.39942	4.7386	52.55	-0.2772	-0.0916	0.1857	762.171	0.05984	-458.556856	-458.550897	-458.549953	-458.587195	21.752	
F	 0.028515006	 0.0736922024	 0.1728595713	-0.027626
C	-0.0345594407	 1.3821755522	 0.0564775411	 0.174349
C	-1.1943652287	 2.0558627271	-0.0091559512	-0.251539
C	-1.1130640819	 3.4821703202	-0.1353831465	 0.045989
N	-0.0222630651	 4.1677328586	-0.1908780913	-0.049209
O	 1.1656737263	 3.4515075096	-0.1213115732	-0.256005
C	 1.2575004758	 2.0746717387	 0.0016904715	 0.373316
O	 2.3362493707	 1.557358653	 0.0524389535	-0.314221
H	-2.1507423461	 1.5487681269	 0.0310221279	 0.149816
H	-2.0146195265	 4.0836562212	-0.1933275033	 0.15513
124.9491	244.9809	308.159	420.405	483.0315	548.716	553.9519	597.6181	741.8192	777.7197	888.682	903.3896	954.1332	954.4044	1060.5196	1084.8865	1308.1741	1349.6407	1379.797	1615.5401	1706.6268	1852.4934	3192.9337	3214.1424
FC1=CC=NOC1=O	Fc1ccnoc1=O	
InChI=1S/C4H2FNO2/c5-3-1-2-6-8-4(3)7/h1-2H	InChI=1S/C4H2FNO2/c5-3-1-2-6-8-4(3)7/h1-2H
