10
gdb 132243	2.14505	1.9943	1.03347	3.9263	52.46	-0.3151	-0.0716	0.2435	992.3141	0.053251	-549.896499	-549.889677	-549.888733	-549.928795	24.038	
F	 0.1021802871	 0.1077224074	-0.1201036568	-0.008829
C	-0.0689242078	 1.3840841664	 0.0348199944	 0.424746
N	-1.1993301932	 1.9201693154	-0.1473961665	-0.417467
C	-1.2834094213	 3.2926813955	 0.0427554243	 0.475856
O	-2.2583070922	 3.9534523426	-0.0838319563	-0.286004
O	-0.092662027	 3.9554003606	 0.422871617	-0.219554
C	 1.0839828778	 3.3420124909	 0.604066283	 0.511381
N	 2.1149553493	 3.9560058547	 0.9391125684	-0.513656
O	 1.0802177112	 1.9498701924	 0.3900936923	-0.22347
H	 2.9132778261	 3.3328698741	 1.0303997002	 0.256997
81.0473	94.3447	196.5434	365.9696	404.4255	522.361	530.1603	633.9723	662.1018	692.1797	739.6835	775.9876	836.3757	866.2932	976.4206	987.2325	1071.8009	1203.7426	1279.8788	1405.7826	1746.3031	1821.4658	1929.7822	3550.7495
FC1=NC(=O)OC(=N)O1	FC1=NC(=O)O[C]([NH])O1	
InChI=1S/C3HFN2O3/c4-1-6-3(7)9-2(5)8-1/h5H	InChI=1S/C3HFN2O3/c4-1-6-3(7)9-2(5)8-1/h5H
