11
gdb 130497	4.05533	1.83126	1.26158	3.9292	65.35	-0.282	-0.1265	0.1555	862.8083	0.069142	-447.694069	-447.688664	-447.68772	-447.723911	21.003	
O	-0.0433207782	 1.2270892581	 0.0090555662	-0.115972
N	 1.1808504522	 1.8262126213	 0.0006079894	-0.163868
C	 2.0265377793	 0.8141848598	-0.0129475215	 0.387027
N	 3.3870926107	 0.8670840329	-0.0256613825	-0.289425
C	 3.9296789741	-0.3197836814	-0.0372697898	-0.018542
C	 3.1803213574	-1.563200224	-0.0368419972	-0.018541
N	 1.877452287	-1.6378777386	-0.0247966304	-0.289425
C	 1.288662772	-0.4101778736	-0.0125271001	 0.387028
N	-0.0012043744	-0.1351837273	 0.0012994846	-0.163868
H	 5.0161115817	-0.3728087717	-0.0479387578	 0.142793
H	 3.7347152483	-2.4990428856	-0.0472019208	 0.142793
235.3514	257.696	479.3019	484.6084	560.3	596.5517	644.4033	653.8403	771.5101	852.605	899.8349	921.6339	924.2841	959.0634	1007.0157	1011.3693	1066.863	1263.212	1374.7398	1409.8668	1416.0696	1460.6083	1559.8137	1588.5556	1624.1851	3155.6999	3170.9709
O1N=C2N=CC=NC2=N1	o1nc2nccnc2n1	
InChI=1S/C4H2N4O/c1-2-6-4-3(5-1)7-9-8-4/h1-2H	InChI=1S/C4H2N4O/c1-2-6-4-3(5-1)7-9-8-4/h1-2H
