11
gdb 21682	7.57204	1.35377	1.14937	4.0406	56.39	-0.2576	-0.0944	0.1632	935.5117	0.072648	-430.72395	-430.71724	-430.716296	-430.755003	23.83	
N	 0.0346757809	 1.3481384966	 0.1421178192	-0.586831
C	-0.0114475428	-0.0115048397	 0.0426213659	 0.421466
N	-1.1356556629	-0.7036631691	 0.0005394772	-0.185479
O	-0.691074879	-2.03080012	-0.0261407689	-0.17819
C	 0.6387042621	-1.9832419903	-0.0073774455	 0.336265
C	 1.4344990035	-3.2353197601	-0.0330758853	 0.086692
O	 0.9535251928	-4.3372897008	-0.0687294395	-0.229936
N	 1.1310027339	-0.7782254131	 0.0326850983	-0.334042
H	 0.8895097876	 1.7694816751	-0.1854154703	 0.274479
H	-0.8080625235	 1.8360659427	-0.1194766518	 0.274777
H	 2.5236486973	-3.0409906714	-0.0161976093	 0.1208
101.0364	180.1916	241.027	324.3235	360.9106	400.7956	516.8068	526.8267	672.2772	737.5975	774.6277	789.6072	948.3418	1026.4461	1036.875	1052.9335	1120.2877	1339.2499	1395.1494	1428.1877	1563.6085	1615.8811	1658.0331	1816.8221	2963.3152	3592.9088	3704.5538
NC1=NOC(C=O)=N1	Nc1noc(C=O)n1	
InChI=1S/C3H3N3O2/c4-3-5-2(1-7)8-6-3/h1H,(H2,4,6)	InChI=1S/C3H3N3O2/c4-3-5-2(1-7)8-6-3/h1H,(H2,4,6)
