10
gdb 21838	9.79858	0.956	0.87102	2.8589	58.18	-0.2695	-0.0881	0.1814	1157.401	0.057541	-450.618192	-450.610515	-450.609571	-450.651213	24.895	
O	 0.4246962228	-0.2021845368	-0.0067153148	-0.250991
C	 0.0918508331	 0.9397443514	 0.0028125768	 0.174461
O	 1.038671274	 1.9420301815	-0.0006247493	-0.22972
C	 0.5940435628	 3.258188826	 0.0105991999	 0.481455
C	 1.7516236227	 4.123937476	 0.0080724029	-0.254312
N	 1.5416411762	 5.4157764376	 0.0168655114	 0.308326
N	 1.3398855489	 6.5248278525	 0.0236688522	-0.182115
O	-0.5635748385	 3.5895533704	 0.0207812963	-0.374306
H	-0.9328481172	 1.329180319	 0.0146893732	 0.145459
H	 2.7754614953	 3.7860406823	-0.0000647786	 0.181743
63.9761	103.1743	117.4178	168.8073	237.9393	368.8463	470.5404	510.6345	548.6752	572.8354	747.4833	809.5662	993.1545	1055.774	1067.4116	1144.0396	1188.4226	1388.7367	1414.4977	1807.1026	1875.6298	2250.2311	3090.9716	3261.5758
O=COC1=CN=NO1	O=COC(=O)[CH][N][N]	
InChI=1S/C3H2N2O3/c6-2-7-3-1-4-5-8-3/h1-2H	InChI=1S/C3H2N2O3/c4-5-1-3(7)8-2-6/h1-2H
