11
gdb 132083	2.43545	1.91208	1.07113	4.485	57.8	-0.2482	-0.064	0.1842	974.932	0.06555	-533.838705	-533.831772	-533.830828	-533.870307	25.555	
O	 0.0096906332	 1.3364489222	 0.007977889	-0.389236
C	-0.0067083157	 0.0014841059	 0.000763626	 0.318079
C	-1.1830173467	-0.6878473038	 0.0033570895	 0.009339
F	-2.3554068065	-0.0632159542	 0.0131236274	-0.042615
C	-1.2045654298	-2.1235135368	-0.0043841208	 0.358344
O	-2.1333468239	-2.8729763116	-0.003440649	-0.323733
O	 0.1168902487	-2.6866486732	-0.0146142712	-0.200282
C	 1.1934428383	-1.9129086141	-0.0162121701	 0.145345
N	 1.2122499695	-0.6296704779	-0.0092950137	-0.353826
H	 0.9390263588	 1.6057444343	 0.0044249413	 0.314866
H	 2.1164270241	-2.4844356707	-0.0243386986	 0.16372
115.7746	186.1797	275.8622	304.6956	350.6375	501.5221	504.8528	512.5837	529.9149	578.6719	684.6475	705.9009	751.1651	882.1789	922.8713	961.7629	1112.7237	1206.235	1301.125	1346.0429	1388.9696	1442.3839	1630.1818	1719.9492	1885.0565	3198.5612	3772.5551
OC1=C(F)C(=O)OC=N1	Oc1c(F)c(=O)ocn1	
InChI=1S/C4H2FNO3/c5-2-3(7)6-1-9-4(2)8/h1,7H	InChI=1S/C4H2FNO3/c5-2-3(7)6-1-9-4(2)8/h1,7H
