11
gdb 130727	3.81357	1.24479	0.93847	2.6737	67.59	-0.2866	-0.12	0.1666	1104.1795	0.06732	-447.734831	-447.727987	-447.727043	-447.766506	24.783	
O	-0.0554035743	-0.0925518112	 0.0045016329	-0.356577
C	 0.0258461177	 1.1146691027	 0.0087637757	 0.496635
N	-1.1283104713	 1.9272732173	 0.028778697	-0.268081
N	-1.2145811858	 3.2613418146	 0.0362102366	-0.02652
N	-0.1476544291	 3.9536469037	 0.0245200345	-0.251768
C	 1.0758773093	 3.2905481134	 0.0044035173	 0.282853
C	 1.2184808768	 1.9385129991	-0.0038955989	-0.32069
C	 2.2206921481	 4.1567114727	-0.0074946215	 0.280334
N	 3.1593627981	 4.8312962609	-0.0174061598	-0.300993
H	-2.0267271282	 1.4577240478	 0.0392030783	 0.29609
H	 2.1864718385	 1.4545295391	-0.019593592	 0.168717
131.7253	156.3644	163.6627	353.6192	429.4726	462.5419	485.0463	552.2502	580.744	696.1648	751.6091	765.4256	783.0211	930.5991	931.293	1007.4896	1092.0893	1193.9221	1216.3658	1336.172	1393.7845	1533.1371	1613.1159	1821.7282	2360.8732	3228.8212	3579.0931
O=C1NN=NC(=C1)C#N	O=C1N[N]N=C([CH]1)C#N	
InChI=1S/C4H2N4O/c5-2-3-1-4(9)7-8-6-3/h1H,(H,6,7,9)	InChI=1S/C4H2N4O/c5-2-3-1-4(9)7-8-6-3/h1H,(H,6,7,9)
