11
gdb 129133	3.15523	1.57821	1.05201	4.8624	67.01	-0.292	-0.1083	0.1837	1006.1599	0.066755	-447.701791	-447.694823	-447.693879	-447.733781	24.988	
N	-0.1000328846	 1.2824878248	-0.1752384395	-0.483572
C	-0.0002434044	 0.0273306512	-0.0086253102	 0.303598
N	 1.2003250079	-0.6751843147	 0.1836740264	-0.306023
C	 1.1160649582	-1.933383205	 0.3348982059	 0.167573
O	 0.0003437982	-2.6992875119	 0.3349434347	-0.208366
N	-1.238258216	-2.0912251685	 0.1512283372	-0.126358
C	-1.219594268	-0.8100716399	-0.0085585191	 0.205581
C	-2.505477158	-0.1997953216	-0.196555132	 0.329809
N	-3.5412644491	 0.2894468407	-0.3477039726	-0.299011
H	 0.8294137992	 1.7085912233	-0.1485086225	 0.243867
H	 1.9887170767	-2.5629289582	 0.4896474417	 0.172905
68.6473	157.7611	201.9028	385.8722	394.1922	426.9085	467.5048	572.5601	576.5451	583.6907	724.0862	816.1311	918.0962	924.1623	932.205	981.8192	998.2599	1136.821	1222.7519	1368.1017	1423.0442	1602.5844	1684.5613	1718.2633	2364.0678	3186.1947	3465.237
N=C1N=CON=C1C#N	[NH][C]1N=CON=C1C#N	
InChI=1S/C4H2N4O/c5-1-3-4(6)7-2-9-8-3/h2,6H	InChI=1S/C4H2N4O/c5-1-3-4(6)7-2-9-8-3/h2,6H
