10
gdb 130916	2.31933	1.61169	0.95091	0.1406	60.96	-0.3049	-0.1213	0.1836	1079.2258	0.053361	-467.563485	-467.556318	-467.555374	-467.595943	24.396	
O	-0.0723785764	 0.024932072	-0.0007516467	-0.212291
C	-0.0101337821	 1.2238928976	 0.0072882163	 0.085661
C	 1.2734726195	 1.982537097	-0.0006177956	 0.14602
N	 2.4537184623	 1.4150762183	-0.0174857413	-0.082942
O	 3.3543526156	 2.4285200363	-0.0194942315	-0.119386
N	 2.7604809164	 3.6506048808	-0.0039650546	-0.128145
C	 1.4721752088	 3.4003542449	 0.0082130173	 0.220809
C	 0.4906287298	 4.427257061	 0.0265256222	 0.270068
N	-0.3475690428	 5.2231621458	 0.0414991062	-0.303755
H	-0.9096164213	 1.8708180264	 0.0213119379	 0.123962
100.6275	117.1112	177.7458	231.6938	268.6814	429.2203	512.9467	566.9942	607.6677	653.9141	755.7579	800.4719	926.0091	947.0934	1032.997	1079.7843	1209.3137	1372.4802	1449.2522	1478.3637	1565.6166	1825.0706	2369.7858	2944.3279
O=CC1=NON=C1C#N	O=Cc1nonc1C#N	
InChI=1S/C4HN3O2/c5-1-3-4(2-8)7-9-6-3/h2H	InChI=1S/C4HN3O2/c5-1-3-4(2-8)7-9-6-3/h2H
