10
gdb 42387	3.67165	0.96348	0.83957	2.3438	61.09	-0.339	-0.1125	0.2266	1263.4939	0.052204	-467.622038	-467.613719	-467.612774	-467.656715	27.294	
N	 0.0856502021	 1.3784302134	-0.7087669373	-0.425149
C	 0.0017996703	 0.193034621	-0.3070960369	 0.327525
O	-1.202155322	-0.488263036	-0.3024139741	-0.233462
C	-2.3048120174	 0.0889050526	 0.2684953167	 0.383215
O	-2.3305235809	 1.0589931251	 0.9544243995	-0.27163
C	-3.4759023412	-0.7190242502	-0.0667545777	 0.263808
N	-4.4347235429	-1.3179832612	-0.3012195695	-0.289029
C	 1.0832865335	-0.6590731893	 0.1310881005	 0.266225
N	 1.9846050011	-1.2982401683	 0.470433287	-0.296845
H	 1.0438578473	 1.7252488629	-0.6840555484	 0.275342
35.9846	60.9599	127.4237	209.3718	225.4688	300.0441	312.5223	459.0042	493.529	591.1464	631.0204	703.9598	749.1544	866.3916	870.8212	926.1691	1037.3088	1179.3745	1301.2565	1726.8602	1867.6733	2355.6465	2365.1633	3518.6979
N=C(OC(=O)C#N)C#N	[NH][C](OC(=O)C#N)C#N	
InChI=1S/C4HN3O2/c5-1-3(7)9-4(8)2-6/h7H	InChI=1S/C4HN3O2/c5-1-3(7)9-4(8)2-6/h7H
