11
gdb 133311	2.03248	0.9883	0.71049	3.3071	54.93	-0.2457	-0.0797	0.166	1439.4313	0.05834	-530.020145	-530.00862	-530.007676	-530.063115	33.441	
N	-0.089646158	 1.4849720149	-0.0527728859	-0.55275
C	-0.1991824803	 0.1649547826	 0.2516934805	 0.372259
C	-1.5539248541	-0.3797601727	 0.1211781376	-0.141618
F	-2.593135831	 0.3973317202	-0.2699348217	-0.092789
C	-1.7713137067	-1.6661392467	 0.3961140129	 0.45018
O	-1.9770123822	-2.7791816299	 0.6328281248	-0.182205
N	 1.2538865054	-3.2792021246	-0.7576784561	-0.000737
N	 2.3468899204	-3.3016566915	-0.6499574032	-0.004054
O	 0.7277660615	-0.547828229	 0.6078942523	-0.391395
H	 0.8114032447	 1.9228828369	 0.0369205395	 0.272134
H	-0.8895868296	 2.0322183996	-0.3186564705	 0.270975
9.9887	15.5827	31.5767	48.4395	77.7154	98.485	111.4525	136.8998	249.9745	270.6609	445.1428	476.8854	498.8761	552.9925	670.2563	727.2545	751.647	1075.7365	1175.9953	1363.1527	1431.6495	1606.4716	1750.2228	2237.3412	2432.963	3611.2401	3749.7492	9.9874	15.5837	31.5769	48.4397	77.7156	98.4851	111.4498	136.9	249.9743	270.6609	445.1428	476.8855	498.8755	552.9925	670.2564	727.2545	751.647	1075.7367	1175.9953	1363.1526	1431.6499	1606.4721	1750.2231	2237.3418	2432.963	3611.24	3749.7491
NC1=C(F)C(=O)N=NO1	NC(=O)[C](F)[C][O].N#N	
InChI=1S/C3H2FN3O2/c4-1-2(5)9-7-6-3(1)8/h5H2	InChI=1S/C3H2FNO2.N2/c4-2(1-6)3(5)7;1-2/h(H2,5,7);
