11
gdb 21417	3.92711	2.13252	1.38204	1.9907	57.67	-0.2599	-0.0833	0.1766	793.8213	0.073666	-430.743841	-430.737576	-430.736632	-430.774644	22.86	
N	-0.1272674913	 1.2645692924	-0.4048020783	-0.544129
C	-0.0221880877	 0.0983288257	 0.061165766	 0.492095
N	-1.135626446	-0.7248703336	 0.1621655648	-0.26691
N	-1.1597110301	-1.9707140221	 0.6332807266	-0.109889
C	-0.0469145234	-2.4788218495	 1.0408968816	-0.130077
C	 1.2278937242	-1.7604353053	 1.0112337629	 0.414246
O	 2.2895429662	-2.1716637831	 1.3721951422	-0.301315
O	 1.1472330187	-0.4635707079	 0.5004821551	-0.254861
H	 0.7721291962	 1.7393462732	-0.4135951536	 0.245899
H	-2.0149669301	-0.3449609483	-0.1519135277	 0.296308
H	-0.0546376066	-3.4899003116	 1.4255454205	 0.158634
98.7624	135.5578	368.756	391.6681	499.6564	539.7331	570.4726	608.6578	698.257	742.3285	762.0952	810.5831	880.7168	923.9414	987.1748	1085.184	1129.7077	1198.7743	1361.6295	1384.888	1460.58	1638.1532	1766.9763	1870.9499	3231.168	3541.7187	3647.4266
N=C1NN=CC(=O)O1	[NH][C]1NN=CC(=O)O1	
InChI=1S/C3H3N3O2/c4-3-6-5-1-2(7)8-3/h1H,(H2,4,6)	InChI=1S/C3H3N3O2/c4-3-6-5-1-2(7)8-3/h1H,(H2,4,6)
