11
gdb 21607	3.52275	2.3674	1.4174	4.9375	59.48	-0.2346	-0.0859	0.1488	775.8766	0.071286	-430.682444	-430.675757	-430.674813	-430.713165	24.915	
N	-0.0064447019	 1.3958429959	 0.1371700286	-0.581127
C	-0.0541769182	 0.0275594519	 0.03967492	 0.118895
C	-1.1757640846	-0.7396520984	 0.0098252806	 0.042951
O	-1.150785156	-2.0771060887	-0.0283890269	-0.223993
N	 0.1246033881	-2.7650223681	-0.0387910342	 0.051906
N	 1.1533072782	-2.0914481341	-0.0242995416	-0.158965
C	 1.2204908445	-0.662946286	 0.0016412178	 0.415753
O	 2.2969964193	-0.1032042465	-0.0167270769	-0.346599
H	 0.9014233805	 1.7759870741	-0.0937804369	 0.277557
H	-0.7944814207	 1.9271012559	-0.1978615535	 0.259295
H	-2.1891198391	-0.349210326	 0.0164429232	 0.144326
107.6837	282.9704	289.2327	362.3186	383.4139	438.2213	500.578	526.3085	554.5342	586.2681	598.3631	769.8924	798.2863	869.8244	927.8624	1068.3526	1152.7889	1203.8867	1333.4995	1449.1422	1593.8871	1616.5155	1674.8939	1779.3272	3177.9492	3562.5225	3682.4581
NC1=CON=NC1=O	Nc1connc1=O	
InChI=1S/C3H3N3O2/c4-2-1-8-6-5-3(2)7/h1H,4H2	InChI=1S/C3H3N3O2/c4-2-1-8-6-5-3(2)7/h1H,4H2
