9
gdb 21849	8.61041	1.25526	1.1072	1.2836	47.1	-0.3255	-0.0959	0.2296	931.1983	0.047295	-466.602569	-466.596288	-466.595344	-466.633945	20.818	
O	 0.0321173573	-0.0252017066	 0.1314775467	-0.214611
C	-0.0191116756	 1.1416311216	-0.04742609	 0.181008
O	 1.0972365427	 1.9417895774	 0.2020053269	-0.207842
C	 0.9536730101	 3.2664131526	 0.1244527234	 0.530567
N	-0.1305440715	 3.9492393109	 0.3593983981	-0.172052
O	 0.2576153025	 5.2339624572	 0.1563475936	-0.13693
N	 1.6054771045	 5.2535097099	-0.1834292684	 0.07538
N	 2.0237447284	 4.0681688237	-0.2065083711	-0.205998
H	-0.8714793783	 1.7281245533	-0.4186631892	 0.15048
73.6019	119.8888	182.3997	376.2365	444.8557	523.7832	662.7049	725.5725	771.333	857.9551	958.8099	1029.0102	1040.1767	1064.1332	1122.8041	1326.3181	1405.5362	1506.7395	1604.1446	1907.5224	3056.7939
O=COC1=NON=N1	O=COc1nonn1	
InChI=1S/C2HN3O3/c6-1-7-2-3-5-8-4-2/h1H	InChI=1S/C2HN3O3/c6-1-7-2-3-5-8-4-2/h1H
