10
gdb 130662	1.44719	1.02206	0.93839	1.6593	52.69	-0.2965	-0.0583	0.2382	1357.2781	0.044392	-504.83462	-504.821685	-504.820741	-504.881517	33.254	
O	-0.1405134273	 0.3808044128	 1.3864065648	-0.254012
C	-0.8632637664	 1.1059773132	 0.842330959	 0.631202
N	-1.7362243023	 1.7861245682	 0.3242460587	-0.41019
C	-1.6682729441	 2.9572670685	-0.4420950387	 0.155403
O	-0.6612036635	 3.5328485439	-0.752943638	-0.24465
N	 1.4176936466	 3.5457382635	 1.6578443006	-0.001368
N	 2.3742257589	 3.953425467	 1.303056383	-0.000054
C	 1.5451940114	 1.5314132538	-1.5373167599	-0.041796
O	 2.400946223	 2.1807120385	-1.8892464958	 0.034648
H	-2.6745891162	 3.2922172106	-0.7294215236	 0.130819
17.949	20.3727	31.059	33.032	38.309	47.2105	53.3368	59.9635	82.7241	114.3154	146.9892	184.2915	571.9655	640.1361	750.2687	938.4982	1038.6915	1415.2794	1484.9715	1787.6907	2209.9221	2339.4673	2432.2803	3046.995	17.9497	20.3715	31.0573	33.0302	38.3095	47.2107	53.336	59.9624	82.7244	114.3143	146.9888	184.2909	571.9654	640.1361	750.2689	938.4982	1038.6917	1415.2798	1484.9717	1787.6902	2209.9217	2339.4666	2432.2803	3046.995
O=C1N=CON=NC1=O	O=C=NC=O.N#N.[C]=O	
InChI=1S/C3HN3O3/c7-2-3(8)5-6-9-1-4-2/h1H	InChI=1S/C2HNO2.CO.N2/c4-1-3-2-5;2*1-2/h1H;;
