11
gdb 42353	7.86855	0.58857	0.54945	2.5823	77.01	-0.3165	-0.1276	0.189	1792.9626	0.063953	-414.407554	-414.398816	-414.397872	-414.442572	28.744	
O	-0.0628119521	-0.1338193947	 0.0012955087	-0.227292
C	-0.0475685713	 1.0700603229	 0.0053161169	 0.196721
C	 1.2311156031	 1.9151822505	-0.0008122347	-0.44329
C	 2.4478794063	 1.1134136704	-0.0135713798	 0.273628
N	 3.4256090752	 0.5005660938	-0.0237345403	-0.278877
C	-1.2737455868	 1.8519287594	 0.0167646073	-0.004672
C	-2.301743405	 2.489093992	 0.0263703607	 0.185276
C	-3.46024045	 3.2111239071	 0.0372439012	 0.217264
N	-4.4426268908	 3.8301700224	 0.0463930848	-0.305992
H	 1.2072632391	 2.5799746452	-0.8735546862	 0.193593
H	 1.2205444922	 2.572115691	 0.8781470513	 0.193641
39.4833	60.6198	115.3933	154.1565	222.7727	297.2844	353.2144	370.7178	444.9731	534.2353	554.8648	583.2853	604.9747	791.9917	918.1662	941.1613	1000.1753	1172.1346	1216.1031	1340.5881	1429.4879	1788.712	2254.5236	2380.0357	2388.2702	3039.8537	3074.8267
O=C(CC#N)C#CC#N	O=C(CC#N)C#CC#N	
InChI=1S/C6H2N2O/c7-4-1-2-6(9)3-5-8/h3H2	InChI=1S/C6H2N2O/c7-4-1-2-6(9)3-5-8/h3H2
