11
gdb 23962	2.03888	1.91687	0.98799	7.0888	71.71	-0.2768	-0.0786	0.1982	1062.1287	0.068714	-410.651788	-410.644757	-410.643812	-410.683741	25.098	
N	 0.1622154156	-1.1599796492	-0.0053815496	-0.328389
C	 0.0530888904	-0.0069698293	 0.0023496392	 0.234002
C	-0.0541735111	 1.3985192623	 0.0114465399	 0.171137
C	-1.1494618342	 2.2524669173	 0.0315767875	 0.115268
N	-0.7367371408	 3.5600270983	 0.0327530586	-0.293066
C	 0.5750483116	 3.5118608916	 0.013925822	 0.028886
N	 1.0399947871	 2.2345360374	 0.0004254363	-0.312852
C	-2.5190592343	 1.8774637562	 0.0489669623	 0.248298
N	-3.6302770735	 1.5566530259	 0.0629854875	-0.329199
H	 1.2354489233	 4.3657146692	 0.0091654525	 0.167784
H	 2.0026731859	 1.9348186903	-0.0148451763	 0.298132
108.073	158.6751	190.178	211.415	471.5653	489.5601	522.0908	539.7221	584.7544	644.6738	657.8171	671.8028	768.3126	855.6298	956.5159	1100.5304	1147.1185	1269.5747	1292.6937	1377.4922	1441.9209	1505.9067	1575.7773	2346.7172	2360.628	3264.9891	3647.7824
N#CC1=C(N=CN1)C#N	N#Cc1c(nc[nH]1)C#N	
InChI=1S/C5H2N4/c6-1-4-5(2-7)9-3-8-4/h3H,(H,8,9)	InChI=1S/C5H2N4/c6-1-4-5(2-7)9-3-8-4/h3H,(H,8,9)
