11
gdb 21901	3.68794	1.91239	1.25935	4.4227	55.42	-0.2554	-0.0607	0.1946	853.1249	0.073641	-430.726315	-430.719795	-430.718851	-430.757232	23.239	
O	 0.1210882619	 1.3322884902	 0.0569381689	-0.410692
C	 0.0798828651	-0.0050595806	 0.0418996419	 0.33167
N	 0.0782816887	-0.72572984	-1.0723940144	-0.301738
N	 0.0305649574	-1.9784076159	-0.5955215147	-0.064538
N	 0.001746993	-2.1260497603	 0.7033864728	-0.234265
C	 0.0322618335	-0.8635113089	 1.1682694131	 0.145775
C	 0.0168726071	-0.5052283458	 2.5903314691	 0.084102
O	-0.024671315	-1.2931328003	 3.5047893582	-0.263265
H	 0.1477849884	 1.6441404934	-0.8568793556	 0.317322
H	 0.0176145304	-2.7708902211	-1.218469626	 0.305305
H	 0.0476306895	 0.5911235293	 2.7650475766	 0.090325
134.8854	176.3807	240.6394	357.7239	360.8697	417.3178	537.5133	558.8338	688.8944	713.3838	761.7939	846.5505	989.0086	1037.2454	1140.1576	1205.1367	1241.8058	1300.4377	1386.5213	1430.1101	1473.8806	1568.9327	1592.4626	1804.5439	2909.5312	3657.7331	3792.5828
OC1=NNN=C1C=O	Oc1n[nH]nc1C=O	
InChI=1S/C3H3N3O2/c7-1-2-3(8)5-6-4-2/h1H,(H2,4,5,6,8)	InChI=1S/C3H3N3O2/c7-1-2-3(8)5-6-4-2/h1H,(H2,4,5,6,8)
