11
gdb 21828	6.20454	1.55562	1.24378	4.0952	55.4	-0.27	-0.0436	0.2264	870.1343	0.073597	-430.737852	-430.731469	-430.730525	-430.76913	22.04	
O	-0.2858787718	-0.0015363793	 0.0025430879	-0.257089
C	-0.0822619305	 1.1807508637	 0.0085224803	 0.15583
N	 1.1682995229	 1.7862892155	 0.0012498928	-0.415525
C	 2.4010793222	 1.184624213	-0.013199914	 0.578272
N	 3.5344019418	 1.8316357616	-0.0184071223	-0.366165
C	 4.4234017849	 0.7888414281	-0.0330719775	 0.053904
N	 3.9023145737	-0.4057845641	-0.0366452043	-0.113175
O	 2.5107344775	-0.1396095245	-0.0231944108	-0.178564
H	-0.876311565	 1.9503269804	 0.0200501206	 0.103773
H	 1.2109840653	 2.7954263901	 0.0075102954	 0.284869
H	 5.4950056992	 0.9264070854	-0.041164158	 0.153869
64.6606	166.2802	198.4821	362.6262	364.2752	602.3231	644.0609	647.6857	771.4358	843.2006	909.7333	935.0713	978.7419	1014.1281	1023.0431	1110.9303	1201.9808	1277.3873	1380.9662	1438.5609	1472.1923	1555.8743	1647.8009	1844.0854	2967.7601	3261.538	3620.334
O=CNC1=NC=NO1	O=CNc1ncno1	
InChI=1S/C3H3N3O2/c7-2-5-3-4-1-6-8-3/h1-2H,(H,4,5,6,7)	InChI=1S/C3H3N3O2/c7-2-5-3-4-1-6-8-3/h1-2H,(H,4,5,6,7)
