10
gdb 21872	4.22211	2.06955	1.3888	3.0724	53.93	-0.2771	-0.1159	0.1612	780.3645	0.060159	-446.731116	-446.72487	-446.723926	-446.762104	22.59	
O	 0.0151988879	 1.3022107054	 0.0083157291	-0.36406
C	-0.0753998892	-0.0185913927	 0.0007398376	 0.497623
N	-1.2103952989	-0.5950975628	 0.0042767044	-0.291851
C	-1.2040640087	-1.9740098342	-0.0031729866	 0.461215
N	-2.2465257724	-2.6764651246	-0.0015498049	-0.501437
O	 0.0664774337	-2.6137091914	-0.0142019188	-0.254821
N	 1.2500975357	-1.8899401494	-0.0170575201	 0.093967
N	 1.1977068308	-0.6525649235	-0.009832338	-0.210562
H	 0.9537332637	 1.539295061	 0.0044554372	 0.32769
H	-2.0214039626	-3.6704066177	-0.0085259699	 0.242236
60.2384	181.1274	366.3396	411.6013	505.4871	546.7013	550.2135	578.6586	710.3757	744.7361	766.057	791.5227	856.0792	905.9688	1009.742	1073.1564	1237.5433	1304.8629	1393.3555	1587.5227	1754.9479	1782.0225	3516.2129	3772.2802
OC1=NC(=N)ON=N1	OC1=N[N]OC(=N1)[NH]	
InChI=1S/C2H2N4O2/c3-1-4-2(7)5-6-8-1/h(H2,3,4,7)	InChI=1S/C2H2N4O2/c3-1-4-2(7)5-6-8-1/h(H2,3,4,7)
