10
gdb 132228	2.0821	1.9985	1.01972	4.4998	51.02	-0.2838	-0.0486	0.2352	999.8155	0.054262	-549.906054	-549.899429	-549.898485	-549.937775	23.864	
O	-0.1604585683	 1.2612382112	 0.0105430799	-0.365178
C	 0.0391551067	-0.0431585668	 0.0023112488	 0.518503
N	 1.1768674375	-0.6043055224	-0.006691221	-0.415546
C	 1.2284326767	-2.0189550912	-0.0148657661	 0.412748
O	 2.2656523428	-2.6155529398	-0.0235538081	-0.305051
N	-0.0216368854	-2.7153475651	-0.0121915969	-0.392974
C	-1.0650599448	-2.0214498846	-0.0029504848	 0.423068
F	-2.262898866	-2.5277381931	 0.0004515444	-0.020725
O	-1.1725339222	-0.6692761168	 0.0050633075	-0.19112
H	 0.714811983	 1.6771882387	 0.0083019963	 0.336276
92.9114	190.3011	208.892	361.9398	402.073	545.4618	548.1254	571.4964	652.0284	665.7589	722.118	754.1107	813.4288	908.203	993.6998	1033.0453	1203.9486	1236.9669	1338.1611	1463.7264	1681.8987	1790.8573	1870.7121	3768.3453
OC1=NC(=O)N=C(F)O1	Oc1nc(=O)nc(F)o1	
InChI=1S/C3HFN2O3/c4-1-5-2(7)6-3(8)9-1/h(H,6,7,8)	InChI=1S/C3HFN2O3/c4-1-5-2(7)6-3(8)9-1/h(H,6,7,8)
