11
gdb 132719	6.0424	1.02493	0.87629	5.0032	66.85	-0.2881	-0.0804	0.2077	1155.1585	0.067029	-455.743598	-455.736961	-455.736017	-455.775035	24.179	
F	 0.0017207046	 0.0262541875	 0.0037104396	-0.051039
C	-0.0162625377	 1.3507895815	 0.0105934418	 0.24865
C	-1.2195986797	 2.0450151659	 0.0300312053	-0.106115
N	-1.2404802909	 3.3750366294	 0.0369795643	-0.255613
C	-0.0520464161	 3.9860280779	 0.024228758	 0.255955
N	 1.152538912	 3.4076942182	 0.0054407019	-0.255613
C	 1.1677784403	 2.0775952371	-0.0014332705	-0.106116
C	-0.0716567501	 5.4306216336	 0.0319617507	 0.284349
N	-0.0873455013	 6.5860224133	 0.038126403	-0.31806
H	-2.168832876	 1.5161952814	 0.0399702826	 0.151801
H	 2.1310209949	 1.5748773442	-0.0166997267	 0.151801
98.5808	164.1385	283.9144	388.0495	430.7083	448.6707	483.5379	561.3492	574.5837	662.8183	715.6447	827.9573	871.8957	960.7427	983.7912	1042.0376	1258.1187	1261.9773	1289.8319	1306.231	1406.5997	1468.8701	1587.9561	1624.5119	2364.4265	3177.5917	3177.9319
FC1=CN=C(N=C1)C#N	Fc1cnc(nc1)C#N	
InChI=1S/C5H2FN3/c6-4-2-8-5(1-7)9-3-4/h2-3H	InChI=1S/C5H2FN3/c6-4-2-8-5(1-7)9-3-4/h2-3H
