11
gdb 21518	3.79089	1.92658	1.27803	3.2225	60.14	-0.2428	-0.0186	0.2242	846.2325	0.073519	-393.595609	-393.588906	-393.587962	-393.626505	24.411	
N	 0.0216077061	 1.3476050878	 0.1376581117	-0.595637
C	-0.051513234	 0.0030243358	 0.0476316959	 0.44798
C	-1.1307241779	-0.8652349557	 0.0184134931	-0.026966
C	-0.5028469538	-2.1443977797	-0.0225952645	-0.028934
N	 0.7977542703	-2.0769422033	-0.0226568182	-0.143751
O	 1.0875251961	-0.681289881	 0.0224140385	-0.210027
C	-2.4928947706	-0.5128309227	 0.0213982342	 0.175253
N	-3.605630967	-0.185479757	 0.0206102248	-0.351327
H	 0.8983006095	 1.7866904694	-0.0928907588	 0.284953
H	-0.8144909462	 1.874436119	-0.0569718377	 0.291935
H	-0.9816895624	-3.1128854027	-0.0539891092	 0.15652
131.4615	168.0833	279.4734	358.65	370.0089	399.76	536.7749	542.6994	603.2115	620.9142	744.1806	750.6468	863.1706	922.6144	940.6717	1053.9243	1199.8288	1233.8992	1333.85	1448.2314	1566.9456	1621.1809	1676.5881	2336.595	3250.1948	3600.1478	3717.1961
NC1=C(C=NO1)C#N	Nc1c(cno1)C#N	
InChI=1S/C4H3N3O/c5-1-3-2-7-8-4(3)6/h2H,6H2	InChI=1S/C4H3N3O/c5-1-3-2-7-8-4(3)6/h2H,6H2
