11
gdb 21637	7.75094	1.39662	1.18431	4.5489	57.39	-0.2555	-0.0798	0.1756	911.0504	0.073235	-426.895075	-426.888462	-426.887518	-426.925929	23.546	
N	-0.0609349728	 1.3295293652	 0.1382931049	-0.572403
C	-0.0336079965	-0.0297971979	 0.0469176722	 0.481247
N	-1.0897791095	-0.8200415741	 0.0374158472	-0.31826
N	-0.499829394	-2.0372980541	-0.0013291922	 0.061916
C	-1.2649166514	-3.230617031	-0.0237232043	 0.210665
O	-0.7911956955	-4.3246757818	-0.0629063894	-0.233824
N	 0.8388283972	-1.9845196125	-0.0197631172	-0.075335
N	 1.1538000175	-0.732500925	 0.0098883936	-0.240355
H	 0.7804353034	 1.7928421102	-0.1674251065	 0.277398
H	-0.9201830555	 1.7761117153	-0.140088026	 0.274904
H	-2.3361408728	-2.9772508845	 0.0004149677	 0.134047
111.6189	208.2963	234.6577	331.6856	361.1861	401.2399	502.8144	532.5849	668.577	766.4457	786.9682	822.6099	972.0705	1030.2457	1070.7597	1121.841	1207.3056	1275.6047	1385.8687	1415.472	1468.8222	1601.539	1674.1142	1857.697	3033.3241	3595.7807	3707.2581
NC1=NN(C=O)N=N1	Nc1nn(C=O)nn1	
InChI=1S/C2H3N5O/c3-2-4-6-7(1-8)5-2/h1H,(H2,3,5)	InChI=1S/C2H3N5O/c3-2-4-6-7(1-8)5-2/h1H,(H2,3,5)
