11
gdb 130893	7.29103	0.89267	0.7953	4.5738	64.59	-0.2951	-0.124	0.171	1285.0787	0.064291	-488.689638	-488.682188	-488.681244	-488.722377	24.995	
O	-0.1827347082	 0.1002363337	-0.0014441068	-0.209569
C	 0.0022788361	 1.2869376682	 0.0078648336	 0.092393
C	 1.3522908486	 1.8988902261	-0.0019423461	 0.298466
N	 2.5263550712	 1.3320882807	-0.0200084181	-0.214019
N	 3.4499599257	 2.3497536228	-0.0212978484	-0.214019
C	 2.7723234721	 3.463548976	-0.004372227	 0.298465
O	 1.4331362284	 3.2522519668	 0.008121423	-0.166752
C	 3.2508984187	 4.8664165429	 0.0023300011	 0.092394
O	 4.4141636606	 5.1652601476	-0.0067820761	-0.209569
H	-0.8177481073	 2.0321051803	 0.0219017573	 0.116105
H	 2.4299858543	 5.6105612348	 0.0186638674	 0.116105
78.7922	134.7799	143.3809	231.123	252.9318	298.0022	389.0602	578.9992	699.1898	699.5811	764.0898	806.0747	1009.9148	1019.8436	1023.968	1027.4493	1105.3319	1173.3642	1315.3261	1421.9781	1449.5209	1520.6668	1543.1633	1820.1445	1827.4193	2942.0266	2944.4053
O=CC1=NN=C(O1)C=O	O=Cc1nnc(o1)C=O	
InChI=1S/C4H2N2O3/c7-1-3-5-6-4(2-8)9-3/h1-2H	InChI=1S/C4H2N2O3/c7-1-3-5-6-4(2-8)9-3/h1-2H
