11
gdb 131383	3.65145	1.80383	1.20738	5.7119	57.37	-0.251	-0.0335	0.2175	888.272	0.068183	-481.000887	-480.994397	-480.993453	-481.031866	23.853	
O	-0.0733549495	 1.3100292481	-0.0141822435	-0.392545
C	 0.0127236096	-0.0125658224	 0.0083929388	 0.493406
N	 1.0969527958	-0.7356761597	 0.038239688	-0.305284
N	 0.6590515758	-2.0522406474	 0.0516809055	-0.360951
C	-0.6891830865	-2.1007437953	 0.0296973997	 0.564879
N	-1.7274243264	-2.9165061617	 0.0251318277	-0.355962
N	-2.7960033731	-2.0659737925	-0.0062306869	-0.079136
N	-2.4829168387	-0.809969086	-0.020889036	-0.15543
N	-1.1075243087	-0.8097521867	 0.0022545284	-0.042796
H	 0.8241413101	 1.6697412828	-0.0047378819	 0.331829
H	 1.3257979515	-2.8016630593	 0.0750085801	 0.301989
134.6121	224.2858	263.0127	291.2081	387.8234	462.5859	553.9644	669.2457	682.2642	687.3042	697.7302	772.9103	867.0705	994.3229	1068.2131	1086.2679	1171.2397	1203.2351	1250.0564	1321.1304	1354.3957	1435.1728	1532.1964	1624.3804	1687.6101	3714.5993	3792.0005
OC1=NNC2=NN=NN12	Oc1n[nH]c2nnnn12	
InChI=1S/C2H2N6O/c9-2-5-3-1-4-6-7-8(1)2/h(H,5,9)(H,3,4,7)	InChI=1S/C2H2N6O/c9-2-5-3-1-4-6-7-8(1)2/h(H,5,9)(H,3,4,7)
