10
gdb 23643	4.14905	2.00795	1.35311	4.9839	50.42	-0.2841	-0.0717	0.2124	779.5238	0.062567	-454.816162	-454.810464	-454.80952	-454.846346	20.679	
F	 0.0362107281	 0.0939631986	 0.0030734097	-0.036717
C	-0.0207776838	 1.4053721873	 0.0108376059	 0.35741
N	-1.1958869304	 1.9359932814	 0.0296514446	-0.363595
C	-1.2782307526	 3.3140938018	 0.03764946	 0.45618
O	-2.2843999029	 3.9734737649	 0.0563167077	-0.355106
N	-0.0035198814	 3.9691041445	 0.0244975423	-0.320742
C	 1.1502701915	 3.2873303246	 0.0051419789	 0.131308
N	 1.2098685128	 1.9867396528	-0.0028305444	-0.316953
H	-0.0231249309	 4.9799518509	 0.0305199206	 0.285644
H	 2.0703269996	 3.8665203533	-0.0040014354	 0.162571
139.3667	200.9792	404.2687	434.0963	561.0939	567.8705	581.7094	703.2031	783.2998	791.0923	819.0999	964.6444	987.0099	1001.8989	1169.0639	1198.0815	1360.6523	1421.6407	1475.3663	1580.1389	1681.3915	1854.6368	3175.4987	3607.4502
FC1=NC(=O)NC=N1	Fc1nc(=O)[nH]cn1	
InChI=1S/C3H2FN3O/c4-2-5-1-6-3(8)7-2/h1H,(H,5,6,7,8)	InChI=1S/C3H2FN3O/c4-2-5-1-6-3(8)7-2/h1H,(H,5,6,7,8)
