11
gdb 21865	3.45932	2.38952	1.41329	3.5313	59.24	-0.2545	-0.0851	0.1694	776.7355	0.071651	-430.669302	-430.662801	-430.661857	-430.700097	24.009	
O	-0.0962755472	 1.3119248135	 0.1823277184	-0.37362
C	 0.0038739611	-0.0082636526	 0.0385272977	 0.291723
C	 1.1575719539	-0.6973573362	-0.1163723119	-0.128798
N	 1.1655917045	-2.074280371	-0.2593687417	-0.085756
N	 0.1641449729	-2.7776114836	-0.2595051243	 0.028906
O	-1.1480940253	-2.0951622154	-0.0937999031	-0.299967
C	-1.2688992755	-0.7434924877	 0.0547210877	 0.3951
N	-2.381680735	-0.1538658473	 0.196388553	-0.509672
H	 0.7823331983	 1.7134920816	 0.1601680822	 0.316246
H	 2.133615354	-0.2278606315	-0.1385674029	 0.129172
H	-3.1473809918	-0.8295999398	 0.1820125848	 0.236667
94.0205	201.6499	306.894	385.941	411.1574	518.6612	528.12	574.2387	613.3572	620.4373	771.6262	802.566	860.0317	881.1123	916.1264	1053.7125	1131.2333	1200.118	1292.3729	1345.9694	1480.844	1597.252	1667.373	1729.717	3202.4859	3483.4468	3780.7126
OC1=CN=NOC1=N	OC1=C(O[N]N=C1)[NH]	
InChI=1S/C3H3N3O2/c4-3-2(7)1-5-6-8-3/h1,4,7H	InChI=1S/C3H3N3O2/c4-3-2(7)1-5-6-8-3/h1,4,7H
