10
gdb 24969	5.49516	1.42198	1.12966	3.4094	53.24	-0.244	-0.0319	0.212	930.4168	0.055479	-508.582107	-508.576134	-508.57519	-508.61301	21.889	
O	-0.0171421585	 0.0415947569	 0.0042763689	-0.317666
C	-0.007313551	 1.2210748125	 0.0097338467	 0.471823
O	-1.181900279	 2.0179027128	 0.0298733781	-0.256102
C	-0.691823077	 3.2780436616	 0.029253317	 0.363597
C	 0.6325620757	 3.3178734359	 0.011222819	 0.279701
O	 1.1177120954	 2.0264313157	-0.0017845502	-0.241785
N	 1.0870639737	 4.6044788314	 0.0117351594	-0.330511
C	-0.0283168821	 5.2793638195	 0.0313104338	 0.045033
O	-1.1965767173	 4.5168517584	 0.0427158396	-0.190493
H	-0.1726149099	 6.3457264754	 0.0390311576	 0.176403
75.42	240.3864	350.211	365.4122	589.7315	616.0088	628.8577	718.8766	746.8954	755.6689	773.2577	802.0801	876.0345	929.106	947.8096	1025.2382	1204.6305	1300.6539	1409.5677	1480.1567	1495.4443	1739.616	1971.5878	3309.9384
O=C1OC2=C(O1)N=CO2	O=c1oc2c(o1)nco2	
InChI=1S/C4HNO4/c6-4-8-2-3(9-4)7-1-5-2/h1H	InChI=1S/C4HNO4/c6-4-8-2-3(9-4)7-1-5-2/h1H
