11
gdb 133396	1.93964	1.06497	0.76434	1.3685	57.1	-0.2484	-0.0519	0.1965	1371.3002	0.058672	-530.005548	-529.994797	-529.993853	-530.046352	32.188	
O	-0.1540316676	 1.4467612327	-0.0634842607	-0.373368
C	-0.1787886028	 0.1397723663	 0.2646173959	 0.355629
C	-1.5009094086	-0.4530199469	 0.04822695	-0.00565
F	-2.4838529665	 0.2945579305	-0.4776120697	-0.069043
C	-1.7153720343	-1.7289740317	 0.3437564661	 0.349605
N	-1.9426800765	-2.8540074709	 0.7376038982	-0.485451
N	 1.0324658784	-3.4020812306	-0.8434939972	-0.013835
N	 2.0829347776	-3.0928565819	-0.9291049141	 0.013329
O	 0.7758446601	-0.4729931278	 0.6857904091	-0.370225
H	 0.7508092378	 1.7457269904	 0.1112247778	 0.308315
H	-1.7620845676	-3.6267795302	 0.0938176345	 0.290695
12.5507	34.0795	46.7776	48.6169	78.0327	91.852	146.1414	263.8706	284.1696	469.309	476.5462	493.4427	594.7138	663.1119	748.236	756.7554	796.3812	984.5276	1125.2048	1227.2753	1380.0415	1442.16	1792.9862	2139.6052	2434.7701	3464.0825	3758.917	12.5501	34.0796	46.7788	48.6186	78.0333	91.8516	146.1416	263.8702	284.1692	469.3088	476.5461	493.4427	594.7127	663.1119	748.2358	756.7552	796.381	984.5276	1125.2042	1227.2753	1380.0411	1442.1604	1792.9868	2139.6054	2434.7702	3464.0827	3758.9158
OC1=C(F)C(=N)N=NO1	OC(=O)[C](F)[C][NH].N#N	
InChI=1S/C3H2FN3O2/c4-1-2(5)6-7-9-3(1)8/h5,8H	InChI=1S/C3H2FNO2.N2/c4-2(1-5)3(6)7;1-2/h5H,(H,6,7);
