11
gdb 42170	2.39894	1.37398	0.93535	4.0787	66.84	-0.3111	-0.1185	0.1926	1150.1053	0.062611	-414.380336	-414.37146	-414.370516	-414.415046	29.809	
O	 0.1456913681	-0.0121828744	-0.5065416876	-0.224475
C	 0.0153483799	 1.1165205864	-0.1352775885	 0.317081
C	 1.1641532584	 1.9428862087	 0.2637713911	 0.249265
N	 2.0700639891	 2.6032237955	 0.5462611818	-0.279619
C	-1.3528261424	 1.8591604047	-0.0746751079	-0.449349
C	-2.4533379919	 1.0218539874	-0.52879307	 0.335962
C	-3.358411941	 0.3365848228	-0.9130492475	-0.377343
C	-1.5659980584	 2.3816586534	 1.2839474746	 0.301877
N	-1.717586049	 2.7853392073	 2.3548508584	-0.294414
H	-1.241021614	 2.7302737943	-0.7400298808	 0.196196
H	-4.1612193188	-0.2734629759	-1.2497974237	 0.22482
35.013	106.841	125.3929	155.3374	190.466	274.14	350.4546	366.0226	456.2395	480.4103	568.2543	586.7297	669.5706	689.4217	690.3159	851.0032	935.872	1028.0502	1096.8914	1234.278	1296.9003	1829.7361	2260.0898	2342.0103	2368.9342	2995.9998	3498.4647
O=C(C#N)C(C#C)C#N	O=C(C#N)[C@@H](C#C)C#N	
InChI=1S/C6H2N2O/c1-2-5(3-7)6(9)4-8/h1,5H	InChI=1S/C6H2N2O/c1-2-5(3-7)6(9)4-8/h1,5H/t5-/m0/s1
