11
gdb 21974	5.45754	1.65359	1.26907	3.8849	55.97	-0.2652	-0.082	0.1832	847.0352	0.072927	-434.478256	-434.47222	-434.471276	-434.508961	21.706	
O	-0.0437771778	 0.0015045354	 0.0036158924	-0.359817
N	-0.0215761038	 1.2269736534	 0.0067656268	 0.342241
O	 0.9895055244	 1.9222390743	 0.0023523261	-0.375194
C	-1.2880411365	 1.9048115189	 0.0168228406	 0.303477
C	-1.4554106803	 3.2574442374	 0.0217608678	-0.017372
O	-2.7703291728	 3.5358888182	 0.030848334	-0.136068
C	-3.447520466	 2.345404074	 0.0318485019	 0.026088
C	-2.5836937792	 1.3020338732	 0.0234900246	-0.281216
H	-0.7653643736	 4.0826581456	 0.0196754176	 0.18307
H	-4.5212871063	 2.4243390401	 0.0388908588	 0.159619
H	-2.8038194481	 0.2483670595	 0.0219759394	 0.155171
86.9436	215.2386	219.1414	434.9366	543.4042	599.9058	625.2258	755.402	776.2336	827.093	842.9826	872.0439	885.2532	987.7637	1025.2913	1106.2958	1191.5886	1245.1157	1266.2142	1412.7289	1435.7483	1535.7466	1595.6116	1632.0597	3283.5342	3302.6318	3307.0392
O=N(=O)C1=COC=C1	O=N(=O)c1cocc1	
InChI=1S/C4H3NO3/c6-5(7)4-1-2-8-3-4/h1-3H	InChI=1S/C4H3NO3/c6-5(7)4-1-2-8-3-4/h1-3H
