11
gdb 25150	3.7219	1.27761	0.95112	5.3031	67.39	-0.289	-0.1233	0.1658	1093.8797	0.066423	-451.59859	-451.591602	-451.590657	-451.630697	24.968	
O	-0.0553875992	-0.0358068309	 0.0041771357	-0.301754
C	 0.0326543266	 1.1497064293	 0.0086112855	 0.454081
O	-1.2081118699	 1.8818625649	 0.0297016724	-0.198087
C	-1.2215507774	 3.2055913859	 0.0363910086	 0.123458
C	-0.0881475666	 3.9437044902	 0.0240504339	-0.235693
C	 1.1261949186	 3.1914425091	 0.0032996102	 0.224691
N	 1.1971481752	 1.8903569632	-0.0040907593	-0.36644
C	 2.3769421431	 3.917719911	-0.0107726717	 0.272533
N	 3.3485857393	 4.5434570132	-0.021396045	-0.29473
H	-2.2262390753	 3.6160947534	 0.0525453448	 0.170298
H	-0.1018096644	 5.0229269807	 0.0295251648	 0.151644
82.9491	139.7094	154.2534	365.3606	437.3404	446.7436	476.3521	573.7385	601.4583	681.2999	739.5943	777.6589	795.1232	818.5929	949.3112	984.9392	1081.1874	1119.0613	1250.5858	1295.8365	1462.5104	1547.2678	1668.203	1893.2176	2358.5806	3197.8694	3257.4884
O=C1OC=CC(=N1)C#N	O=c1occc(n1)C#N	
InChI=1S/C5H2N2O2/c6-3-4-1-2-9-5(8)7-4/h1-2H	InChI=1S/C5H2N2O2/c6-3-4-1-2-9-5(8)7-4/h1-2H
