11
gdb 50809	4.6889	0.90539	0.75886	3.4072	61.26	-0.3047	-0.1414	0.1633	1349.6591	0.06328	-488.705545	-488.696863	-488.695919	-488.740533	28.223	
N	-0.2210500539	 1.3031578446	 0.011737428	-0.396329
C	-0.0275428704	 0.0661696106	 0.0032627022	 0.122727
O	-1.1530317756	-0.7478373867	 0.0097033205	-0.186668
C	-0.9674036201	-2.0774652597	 0.0002514762	 0.413156
O	 0.0751619803	-2.6705733197	-0.013428831	-0.313801
C	-2.3219838454	-2.8063399315	 0.0093561307	 0.178914
O	-3.3860388912	-2.2563616134	 0.0229117015	-0.215887
C	-2.1888265443	-4.2705418268	-0.0003341128	 0.271795
N	-2.1462147971	-5.4255893685	-0.0073659364	-0.288365
H	 0.6685545815	 1.8003976812	 0.0050382374	 0.25473
H	 0.9031344462	-0.5000783701	-0.0096843663	 0.159728
34.9384	97.1139	114.474	118.4847	197.5252	267.2335	305.7853	415.5217	461.8181	510.2144	562.5586	686.7699	833.5138	853.5813	868.779	957.0775	1065.523	1092.5648	1237.6549	1298.9688	1389.4232	1752.2177	1815.5448	1830.5322	2346.1094	3148.491	3514.2082
N=COC(=O)C(=O)C#N	[NH][CH]OC(=O)C(=O)C#N	
InChI=1S/C4H2N2O3/c5-1-3(7)4(8)9-2-6/h2,6H	InChI=1S/C4H2N2O3/c5-1-3(7)4(8)9-2-6/h2,6H
