11
gdb 23996	5.45738	0.99982	0.84501	3.219	79.08	-0.2634	-0.0812	0.1822	1228.9859	0.066127	-414.413102	-414.405891	-414.404946	-414.445127	25.974	
C	 0.1896141462	-1.1133263946	-0.0058338724	-0.332243
C	 0.0536862285	 0.0810617251	 0.0022723879	 0.249563
C	-0.1057870343	 1.4800966643	 0.0117740385	 0.241026
N	-1.2170269138	 2.169131811	 0.0314082789	-0.296662
C	-0.8146401907	 3.4791624192	 0.0324110726	-0.171691
C	 0.550850194	 3.5317120277	 0.0131033262	 0.224272
O	 1.0171781987	 2.2465407169	-0.0002527557	-0.186831
C	 1.4765919061	 4.5933113861	 0.0053684272	 0.215767
N	 2.2159609513	 5.4848989247	-0.0005814116	-0.321297
H	 0.3059673333	-2.1697657282	-0.0129557034	 0.217577
H	-1.5140193493	 4.299606708	 0.0467265517	 0.160519
118.0021	120.0508	204.7465	204.9335	431.058	486.1545	505.8671	540.879	598.1692	639.8267	664.7025	681.6367	703.3408	758.4046	896.228	986.7904	1010.9353	1169.8557	1218.38	1267.972	1340.4496	1525.458	1583.3205	2248.6628	2347.2409	3275.1876	3498.2244
C#CC1=NC=C(O1)C#N	C#Cc1ncc(o1)C#N	
InChI=1S/C6H2N2O/c1-2-6-8-4-5(3-7)9-6/h1,4H	InChI=1S/C6H2N2O/c1-2-6-8-4-5(3-7)9-6/h1,4H
