10
gdb 130686	3.27499	1.37188	0.96771	4.1444	62.87	-0.2445	-0.108	0.1365	1057.586	0.053746	-504.777884	-504.770598	-504.769654	-504.810153	25.478	
O	-0.22969021	 0.0139030968	 0.0265018948	-0.352022
C	-0.0811340889	 1.1957589565	 0.0642913467	 0.505307
N	-1.0503291046	 2.1802555283	 0.1503453792	-0.456316
C	-0.4220860693	 3.4335736285	 0.0082974067	 0.266713
C	 1.018002085	 3.214684138	-0.0286169232	 0.411592
O	 1.9383220872	 3.9709890172	-0.0816509108	-0.330233
N	-1.5006691836	 5.6099683832	 0.1143354891	-0.201213
N	-1.0055429255	 4.584731079	 0.0654950258	 0.09562
O	 1.1538891521	 1.8281796223	 0.0327533931	-0.229517
H	-1.9914479724	 1.9716308501	-0.1447711415	 0.290069
99.9595	146.9521	170.0606	251.8235	370.0852	379.8513	472.7139	479.8198	551.4899	641.3985	704.2131	725.1102	758.6989	824.9555	951.1288	1017.744	1277.0356	1297.9348	1320.0404	1502.3743	1873.4423	1939.014	2190.4134	3645.6643
O=C1NC2=C(ON=N2)O1	O=C1N[C](C(=O)O1)[N][N]	
InChI=1S/C3HN3O3/c7-3-4-1-2(8-3)9-6-5-1/h(H,4,7)	InChI=1S/C3HN3O3/c4-6-1-2(7)9-3(8)5-1/h(H,5,6,8)
