10
gdb 21776	3.40533	2.49348	1.43946	2.5137	52.69	-0.2785	-0.0712	0.2073	748.997	0.06201	-446.771472	-446.765389	-446.764445	-446.801977	21.957	
O	-0.0571610084	-0.0504853195	 0.0048526692	-0.312332
C	 0.0102464453	 1.1504341844	 0.0088497633	 0.360898
N	-1.1147389373	 1.9687943504	 0.0279023974	-0.278888
N	-1.1967609674	 3.3317298091	 0.035881485	-0.059912
N	-0.1354278923	 3.9948413667	 0.0251471146	-0.059913
N	 1.0533508247	 3.3233857489	 0.0068086652	-0.278888
C	 1.2953724129	 1.9533451511	-0.0023160786	 0.360897
O	 2.4040764601	 1.4872759209	-0.020268366	-0.312332
H	-2.0183231189	 1.5121109031	 0.0376179521	 0.290236
H	 1.8600019613	 3.9352443749	-0.0010316422	 0.290236
114.0694	178.0296	331.7814	440.8193	478.0264	568.2647	570.4412	602.3764	706.7493	713.9676	717.1915	804.7909	985.1177	1069.6479	1119.5277	1160.099	1328.6066	1416.5925	1454.0551	1603.0823	1829.1794	1844.9325	3590.4861	3591.2881
O=C1NN=NNC1=O	O=c1[nH]nn[nH]c1=O	
InChI=1S/C2H2N4O2/c7-1-2(8)4-6-5-3-1/h(H,3,6,7)(H,4,5,8)	InChI=1S/C2H2N4O2/c7-1-2(8)4-6-5-3-1/h(H,3,6,7)(H,4,5,8)
