11
gdb 23979	6.27912	0.9516	0.82637	4.8953	75.83	-0.265	-0.0655	0.1995	1252.8157	0.066029	-414.413207	-414.405983	-414.405039	-414.445206	26.108	
C	 0.1134179435	-1.1586013001	-0.0052913522	-0.338545
C	 0.0099747695	 0.0388226466	 0.0030165607	 0.254825
C	-0.1035296263	 1.4425671353	 0.0126447315	 0.235224
N	-1.1802036028	 2.1696411113	 0.0311117359	-0.338317
C	-0.7128265484	 3.4758235789	 0.032335447	 0.139335
C	 0.6513070815	 3.4628784723	 0.013823983	-0.083837
O	 1.0555018088	 2.1770425825	 0.0010136088	-0.155415
C	-1.5685671759	 4.6084346385	 0.0503033294	 0.209369
N	-2.245306014	 5.5464033181	 0.0647484072	-0.322828
H	 0.1957101482	-2.2181892694	-0.0125101422	 0.2159
H	 1.4107251459	 4.225543766	 0.0078890008	 0.18429
113.5762	119.4492	205.3242	215.1741	435.9331	490.7694	513.3281	523.8694	595.144	632.7031	681.8091	684.0395	704.6009	755.5014	817.1971	955.0899	1013.2282	1162.3883	1202.2915	1281.175	1321.0486	1570.1924	1578.363	2251.0533	2362.3156	3300.0956	3497.8691
C#CC1=NC(=CO1)C#N	C#Cc1nc(co1)C#N	
InChI=1S/C6H2N2O/c1-2-6-8-5(3-7)4-9-6/h1,4H	InChI=1S/C6H2N2O/c1-2-6-8-5(3-7)4-9-6/h1,4H
