10
gdb 23629	4.06998	1.98402	1.33382	4.7406	50.51	-0.2677	-0.0559	0.2118	791.2608	0.061007	-458.608473	-458.60266	-458.601716	-458.638804	21.092	
F	 0.0890796634	 0.0871048369	 0.0020904428	-0.032099
C	-0.0602817486	 1.3851739036	 0.0114713793	 0.416737
N	-1.1983823188	 1.925295237	 0.029742679	-0.399328
C	-1.2713466971	 3.346060646	 0.0384262241	 0.393378
O	-2.3323564845	 3.919730916	 0.0559901342	-0.326223
C	 0.033246149	 4.0325634659	 0.0243694246	-0.246298
C	 1.161950828	 3.3227094552	 0.0051959578	 0.075012
O	 1.1570209488	 1.9516860233	-0.0020912708	-0.190886
H	 0.056028497	 5.1138812767	 0.0298668073	 0.144347
H	 2.1730653827	 3.7056103993	-0.0065150784	 0.16536
121.3757	208.8273	391.134	408.7058	518.0312	559.7004	570.3153	726.9814	768.5873	774.8971	858.1624	932.4353	970.8688	997.3855	1037.1092	1206.2736	1285.6281	1345.886	1404.7324	1652.2045	1740.5426	1820.186	3229.6128	3249.3333
FC1=NC(=O)C=CO1	Fc1nc(=O)cco1	
InChI=1S/C4H2FNO2/c5-4-6-3(7)1-2-8-4/h1-2H	InChI=1S/C4H2FNO2/c5-4-6-3(7)1-2-8-4/h1-2H
