10
gdb 130789	3.85325	1.23749	0.93667	0.9428	64.02	-0.307	-0.1478	0.1592	1093.1865	0.052971	-467.580085	-467.57303	-467.572086	-467.612097	24.934	
O	-0.0022222455	-0.0766797927	 0.0035725741	-0.306635
C	 0.0184732794	 1.1199626518	 0.0087872968	 0.50495
O	-1.1735094016	 1.8253226303	 0.0289267437	-0.254951
N	-1.2395501065	 3.258857501	 0.0370947353	 0.084287
N	-0.1966473689	 3.9139670813	 0.0260859836	-0.155323
C	 1.0679247023	 3.3002229924	 0.0057033525	 0.263126
C	 1.2101373491	 1.9608374534	-0.0030248283	-0.312252
C	 2.176946947	 4.2036590454	-0.0047963164	 0.285804
N	 3.0867400456	 4.9169041691	-0.0135375819	-0.290507
H	 2.1759067391	 1.472028758	-0.0186000796	 0.181501
123.0769	126.0816	155.1841	316.7053	381.5999	446.4973	489.1012	516.8292	567.3629	706.7096	735.1452	753.0091	755.3913	883.755	940.6721	973.4273	1158.5802	1204.4123	1317.7205	1596.1899	1655.7452	1855.7086	2361.2105	3231.4613
O=C1ON=NC(=C1)C#N	O=C1O[N]N=C([CH]1)C#N	
InChI=1S/C4HN3O2/c5-2-3-1-4(8)9-7-6-3/h1H	InChI=1S/C4HN3O2/c5-2-3-1-4(8)9-7-6-3/h1H
