11
gdb 131421	3.2551	1.52906	1.04036	2.6013	57.52	-0.2884	-0.0818	0.2066	1011.3743	0.065046	-525.820618	-525.813461	-525.812517	-525.852896	25.976	
O	-0.1046880671	 1.3596531235	-0.1917687145	-0.366013
C	-0.0087438786	 0.0422532295	-0.0178116899	 0.408841
N	 1.1480831991	-0.5028070131	 0.0365733398	-0.184242
O	 1.189719527	-1.900370346	 0.2221080026	-0.258066
C	 0.0792989472	-2.6690077601	 0.3429220136	 0.515323
O	 0.1563940256	-3.842147276	 0.4964543364	-0.321684
O	-1.132924906	-2.0403358002	 0.2777346892	-0.258145
C	-1.2836013251	-0.682852016	 0.0987345806	 0.357942
N	-2.4050721375	-0.1203280336	 0.0409871979	-0.471715
H	 0.7952722806	 1.7152444631	-0.2533109884	 0.322276
H	-3.1648861853	-0.795747561	 0.1429241327	 0.255483
67.668	109.7518	305.1432	325.4589	390.8172	392.3396	477.2958	528.2781	546.4084	618.1863	703.4885	743.4567	770.3284	816.3037	921.3157	931.373	982.2486	1116.2069	1147.6892	1242.4605	1316.9317	1492.7339	1687.5719	1769.2154	1915.7216	3486.9823	3746.3556
OC1=NOC(=O)OC1=N	OC1=NOC(=O)O[C]1[NH]	
InChI=1S/C3H2N2O4/c4-1-2(6)5-9-3(7)8-1/h4H,(H,5,6)	InChI=1S/C3H2N2O4/c4-1-2(6)5-9-3(7)8-1/h4H,(H,5,6)
