10
gdb 131927	4.61928	1.17844	0.93891	2.8556	54.87	-0.2909	-0.1158	0.1751	1087.0381	0.053253	-545.643999	-545.637264	-545.63632	-545.675969	23.622	
O	 0.0665052194	 0.0462441765	 0.0025212088	-0.329241
C	 0.0245408783	 1.225192002	 0.0093846044	 0.522489
O	-1.1281202333	 1.9964033263	 0.0303297375	-0.197455
C	-0.7513923916	 3.3062254133	 0.0316756078	-0.047283
C	 0.5815299339	 3.35013316	 0.0125570173	 0.39297
O	 1.0976445179	 2.0854850597	-0.0017413966	-0.209479
N	 1.4625755412	 4.4774973862	 0.0057734738	 0.350885
O	 0.9109150401	 5.5733006718	 0.0198121838	-0.365936
O	 2.661484093	 4.2552894447	-0.0127045403	-0.331118
H	-1.5083679989	 4.0694533796	 0.0467397335	 0.214168
84.0013	143.6373	188.7707	301.4772	404.7784	472.1837	568.8455	601.9811	745.6365	751.1338	777.1673	827.2228	851.358	896.3352	955.9967	1032.843	1142.0124	1256.3842	1337.5609	1408.1188	1641.252	1694.3909	1974.2409	3318.0186
O=C1OC=C(O1)N(=O)=O	O=c1occ(o1)N(=O)=O	
InChI=1S/C3HNO5/c5-3-8-1-2(9-3)4(6)7/h1H	InChI=1S/C3HNO5/c5-3-8-1-2(9-3)4(6)7/h1H
