11
gdb 132341	2.11523	1.56895	0.90461	0.9592	60.24	-0.2814	-0.0623	0.2192	1127.2612	0.063326	-530.023012	-530.014741	-530.013797	-530.057272	28.362	
O	 0.0031310916	 1.2219631206	 0.0553461217	-0.353785
C	 0.0238254407	-0.1051761889	-0.016555091	 0.485242
N	-1.2113519228	-0.6091557133	-0.2071157739	-0.294772
C	-1.7243103099	-1.7160240331	-0.0302484573	 0.535794
N	-2.5123403799	-2.6061842351	 0.1644049332	-0.512529
O	 0.4455340544	-2.9051088597	-0.0852764731	-0.36007
C	 1.2890340238	-2.0457809641	-0.0304472186	 0.397353
F	 2.5753213052	-2.3973070893	-0.0382444598	-0.067561
N	 1.1869855868	-0.6889631024	 0.0475781034	-0.463953
H	 0.9275296875	 1.4984194395	 0.149710882	 0.32113
H	-2.3215814773	-3.579251204	-0.0209941065	 0.31315
41.7206	79.8683	142.1079	185.8316	243.8876	373.1141	418.8685	441.7034	504.8035	585.1377	605.136	635.3353	724.9732	753.0145	785.7044	810.152	882.8141	1016.4682	1192.144	1354.428	1374.8571	1541.3126	1626.927	1800.5102	2261.1834	3660.7648	3754.1261
OC1=NC(=N)OC(F)=N1	OC(=N[C][NH])[N]C(=O)F	
InChI=1S/C3H2FN3O2/c4-1-6-3(8)7-2(5)9-1/h(H2,5,7,8)	InChI=1S/C3H2FN3O2/c4-2(8)7-3(9)6-1-5/h5H,(H,6,9)
