11
gdb 23669	3.87109	1.78643	1.22234	1.0083	55.31	-0.261	-0.0399	0.2211	846.3857	0.07252	-446.700606	-446.694853	-446.693908	-446.730653	21.873	
F	-0.0026473366	 0.0264378682	 0.0031869487	-0.069618
C	-0.0269549866	 1.3583330731	 0.0108659769	 0.270236
C	-1.2442641159	 2.0211109955	 0.0309321004	-0.350045
C	-1.1872770443	 3.4061110579	 0.0377934023	 0.270236
F	-2.3172623321	 4.1113500669	 0.0569231112	-0.069618
C	 0.0374346694	 4.0653534261	 0.0249250224	-0.103344
N	 1.1935200039	 3.4027532415	 0.0056671724	-0.240019
C	 1.1678395529	 2.070374282	-0.0013408068	-0.103344
H	-2.1861030228	 1.4873148058	 0.0406914273	 0.139436
H	 0.0695773967	 5.1506744235	 0.0304722915	 0.12804
H	 2.1153233354	 1.5402671796	-0.0170447263	 0.12804
237.0462	248.5996	325.8963	470.5448	488.1851	519.8433	541.4289	624.25	722.8689	734.2665	905.4391	907.3348	950.1479	998.3869	1036.103	1173.0318	1183.3601	1275.6638	1329.0877	1337.4262	1478.613	1500.3621	1623.2469	1640.554	3177.4156	3181.5228	3222.0486
FC1=CC(F)=CN=C1	Fc1cc(F)cnc1	
InChI=1S/C5H3F2N/c6-4-1-5(7)3-8-2-4/h1-3H	InChI=1S/C5H3F2N/c6-4-1-5(7)3-8-2-4/h1-3H
