11
gdb 21840	8.21382	1.23761	1.08941	5.3774	54.4	-0.2631	-0.0247	0.2384	972.075	0.073102	-430.727172	-430.720695	-430.719751	-430.758605	22.35	
O	-0.0539554503	 0.0078620227	 0.0904771249	-0.251685
C	-0.0127322753	 1.1851447058	-0.0682749641	 0.1611
O	 1.0840723914	 1.9118401507	 0.330861658	-0.224452
C	 1.0375358226	 3.2635968734	 0.1984381685	 0.401247
C	 2.1026823093	 4.0966066852	-0.047721897	-0.180514
N	 1.5243654254	 5.3220351029	-0.0357405099	-0.140086
N	 0.2059843828	 5.2578835092	 0.1932514186	-0.104323
N	-0.0935257564	 3.9946897744	 0.3444126006	-0.255753
H	-0.7885438042	 1.8143888111	-0.527286252	 0.132908
H	 3.1506867363	 3.9241098965	-0.2152867654	 0.167069
H	 1.9563450784	 6.2236002781	-0.1645609022	 0.294487
73.1133	125.7749	179.3796	372.6417	452.3801	505.1714	591.889	690.272	732.2242	778.2422	838.9832	986.3958	1035.9788	1045.6245	1062.8112	1102.9336	1135.8647	1279.4931	1338.4757	1352.3959	1412.345	1501.1083	1604.5372	1880.8777	3052.0138	3301.6199	3655.5299
O=COC1=CNN=N1	O=COc1c[nH]nn1	
InChI=1S/C3H3N3O2/c7-2-8-3-1-4-6-5-3/h1-2H,(H,4,5,6)	InChI=1S/C3H3N3O2/c7-2-8-3-1-4-6-5-3/h1-2H,(H,4,5,6)
