11
gdb 23719	6.03645	1.56275	1.24138	1.9966	55.86	-0.247	-0.0592	0.1878	849.3959	0.073455	-438.740947	-438.73511	-438.734166	-438.770982	22.183	
O	 0.0875570734	 1.3343192996	 0.1055368688	-0.414479
C	 0.0675345547	-0.0112063547	 0.0505528329	 0.412249
N	 0.0985121407	-0.6013519882	-1.1374677908	-0.31733
C	 0.0774016222	-1.9351950088	-1.1545924336	-0.142962
C	 0.0251428232	-2.6491845872	 0.0358640922	 0.305644
F	 0.0045868721	-3.9777714263	 0.0032196203	-0.068634
N	-0.0059876853	-2.0753982547	 1.2202025758	-0.271013
C	 0.0148497213	-0.7469400751	 1.2425769566	-0.083149
H	 0.1238929959	 1.6488167161	-0.8083555594	 0.30507
H	 0.1019801501	-2.4394541529	-2.1150776133	 0.137088
H	-0.0098816883	-0.2467520977	 2.2051997205	 0.137517
141.39	356.6824	399.8592	450.2494	451.9863	486.4506	528.7523	582.802	659.053	790.2317	796.4023	908.8675	920.727	944.21	1035.337	1174.3358	1268.5339	1304.1409	1314.5965	1362.2082	1446.0458	1521.7606	1607.2145	1644.6714	3185.4009	3188.7691	3772.5094
OC1=NC=C(F)N=C1	Oc1ncc(F)nc1	
InChI=1S/C4H3FN2O/c5-3-1-7-4(8)2-6-3/h1-2H,(H,7,8)	InChI=1S/C4H3FN2O/c5-3-1-7-4(8)2-6-3/h1-2H,(H,7,8)
