11
gdb 132327	2.10218	1.78776	0.96613	3.7745	58.42	-0.253	-0.0638	0.1892	1048.2843	0.064539	-537.965962	-537.959124	-537.95818	-537.997771	25.292	
F	 0.1037226149	 0.0822301585	 0.0019578709	-0.020587
C	-0.0453366743	 1.3796470922	 0.0112159313	 0.448714
C	-1.2477346123	 1.9901183405	 0.0309568075	-0.521199
C	-1.149136275	 3.4150650104	 0.0375891373	 0.374466
F	-2.2941976582	 4.069512286	 0.0568507421	-0.045287
N	-0.0737761437	 4.1087686074	 0.0265978157	-0.327558
C	 1.1335941463	 3.4713910016	 0.0066195077	 0.451029
N	 2.2570177406	 4.033558575	-0.0073268868	-0.505669
O	 1.1069677292	 2.0046520559	-0.0009007784	-0.246809
H	-2.1817453763	 1.4529140359	 0.0406575655	 0.151862
H	 3.0158600389	 3.3559661766	-0.0218199728	 0.241037
102.0341	188.2543	224.1711	338.347	371.3106	498.267	512.3877	595.3801	638.0543	686.8585	690.4934	745.5542	780.6358	797.1478	833.9008	955.5552	1031.7259	1123.3764	1184.3204	1216.0294	1409.6056	1455.6203	1616.9235	1731.8979	1794.0284	3271.4813	3535.7877
FC1=CC(F)=NC(=N)O1	F[C@H]1C=C(F)N=C([NH])O1	
InChI=1S/C4H2F2N2O/c5-2-1-3(6)9-4(7)8-2/h1,7H	InChI=1S/C4H3F2N2O/c5-2-1-3(6)9-4(7)8-2/h1,3,7H/t3-/m1/s1
