11
gdb 25181	3.18193	1.56887	1.05078	6.185	69.39	-0.2778	-0.1226	0.1552	1009.367	0.066639	-451.590161	-451.583295	-451.582351	-451.621914	24.798	
O	-0.0187102667	 0.0078545118	 0.3758866716	-0.291702
C	 0.0203329402	 1.1537281393	 0.0463794246	 0.413098
O	-1.1571797349	 1.7943467315	-0.351840303	-0.193719
C	-1.1525965786	 3.0803612425	-0.7286958949	 0.079808
C	-0.0208430347	 3.8183140268	-0.7435316958	-0.092007
N	 1.1814795251	 3.2807414665	-0.3711106953	-0.265872
C	 1.2062797286	 2.0365044115	-0.0011991472	 0.040715
C	 2.4539783283	 1.447021428	 0.3942496368	 0.2997
N	 3.458163333	 0.9702612488	 0.7132466496	-0.305693
H	-2.1364381243	 3.4373154705	-1.0090423771	 0.169204
H	-0.0290699359	 4.8558346529	-1.0497158793	 0.146469
89.9251	154.0843	201.0105	376.1428	400.1324	481.2852	506.3498	545.9327	599.4108	600.8583	719.5941	815.0008	845.7549	889.7984	943.0598	966.1022	1083.8871	1215.4922	1252.3245	1291.0612	1435.6984	1537.9767	1637.6443	1865.6463	2351.4005	3212.6628	3233.0275
O=C1OC=CN=C1C#N	O=c1occnc1C#N	
InChI=1S/C5H2N2O2/c6-3-4-5(8)9-2-1-7-4/h1-2H	InChI=1S/C5H2N2O2/c6-3-4-5(8)9-2-1-7-4/h1-2H
