11
gdb 130809	8.67172	0.68138	0.63174	1.4675	75.98	-0.2923	-0.1144	0.1778	1594.0778	0.065384	-451.510531	-451.502957	-451.502013	-451.544436	24.953	
O	-0.1223929318	 0.0090911249	 0.0019065921	-0.20687
C	-0.0142976576	 1.2114969748	 0.0076010197	 0.004177
C	 1.2560756688	 1.9030549133	-0.0010854078	 0.277754
C	 2.3033774746	 2.5044234694	-0.0081206552	-0.050009
C	 3.5233621454	 3.2068516702	-0.0163182747	 0.246113
N	 4.7384100186	 2.7283277857	-0.0319916678	-0.293968
C	 5.4868263533	 3.8726152467	-0.0322243851	 0.00742
N	 4.8008892002	 4.9869647137	-0.0165848983	-0.078806
O	 3.4832951124	 4.5557068147	-0.0055463905	-0.186274
H	-0.8937518138	 1.8838391191	 0.0200507414	 0.120729
H	 6.56680498	 3.8775586574	-0.0435558436	 0.159735
41.6408	74.2978	104.9912	203.8037	265.8221	423.7493	488.7202	514.8772	656.6766	710.5142	769.4766	931.547	939.9099	965.1222	985.5829	1016.5552	1052.9694	1185.1481	1261.2586	1305.1219	1418.1618	1482.2249	1589.2691	1768.0474	2332.6876	2945.726	3266.5704
O=CC#CC1=NC=NO1	O=CC#Cc1ncno1	
InChI=1S/C5H2N2O2/c8-3-1-2-5-6-4-7-9-5/h3-4H	InChI=1S/C5H2N2O2/c8-3-1-2-5-6-4-7-9-5/h3-4H
