10
gdb 130581	3.82773	1.37578	1.01203	2.8739	61.11	-0.3261	-0.1315	0.1946	1027.4851	0.054777	-463.77021	-463.763287	-463.762342	-463.802456	23.474	
O	 0.0274181306	-0.0728311105	 0.0030380354	-0.235916
C	-0.0343095425	 1.1188265997	 0.007269051	 0.404051
C	 1.1381326615	 1.9921030983	 0.0015007253	 0.268403
N	 2.1269088423	 2.5888283988	-0.0037807384	-0.293415
N	-1.2615205114	 1.8328237166	 0.0181664225	 0.02536
N	-2.4630850053	 1.2466754043	 0.024853917	-0.201207
C	-3.2561922591	 2.29444967	 0.0337165323	 0.106786
N	-2.5719793146	 3.4848719191	 0.0325853746	-0.179419
N	-1.3193201003	 3.1854547242	 0.0227230345	-0.072505
H	-4.3320311412	 2.2275748595	 0.0411422557	 0.177864
73.416	138.9419	156.9502	265.3743	315.3386	467.7136	500.1993	677.6408	682.6789	716.6026	760.863	921.6301	961.2723	1022.4348	1074.5275	1117.7366	1161.2188	1295.5923	1317.6715	1404.7339	1518.5734	1841.1481	2359.4368	3292.502
O=C(C#N)N1N=CN=N1	O=C(C#N)n1ncnn1	
InChI=1S/C3HN5O/c4-1-3(9)8-6-2-5-7-8/h2H	InChI=1S/C3HN5O/c4-1-3(9)8-6-2-5-7-8/h2H
