10
gdb 130664	2.15234	0.92421	0.67374	2.5412	61.84	-0.2902	-0.0817	0.2085	1508.1919	0.047801	-467.654973	-467.644185	-467.64324	-467.697026	31.075	
O	 0.1946563275	-0.0355229185	 0.2936935216	-0.254872
C	 0.7863652356	 0.9605838973	 0.2316005973	 0.604118
N	-2.1582300652	 2.3237130111	-0.7617153862	-0.003691
N	-3.1002714681	 2.8620900577	-0.5899086175	 0.00222
O	 0.2391699156	 3.7611595064	 0.6993541916	-0.288709
C	 1.2942744009	 3.2976447701	 0.3447367425	 0.228407
N	 1.5244559274	 1.92624491	 0.129117407	-0.412937
C	 2.4715273814	 4.0921490008	 0.0936572065	 0.290551
C	 3.4269874433	 4.794296501	-0.1031760705	-0.389665
H	 4.2720475515	 5.415460154	-0.2778953723	 0.224578
10.5624	19.7961	37.9231	45.6332	77.8947	83.8247	102.8282	195.2415	263.4664	503.8265	553.5006	632.9175	650.9	659.8156	711.8213	754.1048	812.5623	1117.4127	1476.7794	1765.231	2232.0694	2346.1089	2433.4127	3494.4401	10.5581	19.792	37.9203	45.6324	77.8942	83.8232	102.8274	195.2413	263.4662	503.8269	553.5007	632.9174	650.8998	659.8149	711.8206	754.1057	812.5623	1117.4131	1476.7793	1765.2308	2232.0699	2346.1082	2433.4127	3494.4392
O=C1N=NOC(=N1)C#C	O=C=NC(=O)C#C.N#N	
InChI=1S/C4HN3O2/c1-2-3-5-4(8)6-7-9-3/h1H	InChI=1S/C4HNO2.N2/c1-2-4(7)5-3-6;1-2/h1H;
