10
gdb 21979	5.5311	1.6508	1.27135	1.4566	52.18	-0.3077	-0.0983	0.2095	830.535	0.060817	-450.497687	-450.491756	-450.490812	-450.528391	20.741	
O	-0.0577652423	 0.0011353993	 0.0037069985	-0.355388
N	-0.0151564402	 1.2252252802	 0.0067816559	 0.342411
O	 0.9998923033	 1.9116995808	 0.0020412929	-0.365053
C	-1.2718814024	 1.9160566651	 0.0169325671	 0.205395
C	-1.469595267	 3.2630878829	 0.0219686556	 0.066743
O	-2.7726872774	 3.511317672	 0.031133516	-0.152431
N	-3.4848704438	 2.2982984617	 0.0323948124	-0.106734
C	-2.577067556	 1.3595348194	 0.0239840358	-0.013877
H	-0.7950625429	 4.1037293597	 0.0198790958	 0.199661
H	-2.8614807913	 0.318592289	 0.0229758899	 0.179273
86.8262	209.4439	215.631	432.9025	543.8811	591.3737	644.2784	780.1071	828.7049	854.0262	896.6441	922.504	934.1031	1016.993	1154.7446	1173.4597	1279.893	1395.443	1432.0271	1493.0054	1610.1817	1637.2132	3273.5352	3288.5059
O=N(=O)C1=CON=C1	O=N(=O)c1conc1	
InChI=1S/C3H2N2O3/c6-5(7)3-1-4-8-2-3/h1-2H	InChI=1S/C3H2N2O3/c6-5(7)3-1-4-8-2-3/h1-2H
