10
gdb 21736	5.6316	2.2313	1.59811	2.8101	55.42	-0.2411	-0.0745	0.1665	688.6039	0.061743	-413.415821	-413.410601	-413.409657	-413.445	20.093	
O	-0.0268685239	 1.3368338649	 0.009585652	-0.134963
C	 1.2590394094	 1.8391848328	-0.0000363189	-0.155806
C	 2.1085465912	 0.7784121267	-0.0139760629	 0.30987
O	 3.3939514465	 0.4374943302	-0.0281846703	-0.28298
N	 3.3468597671	-1.0973215949	-0.036282204	-0.003082
N	 2.172254044	-1.471090021	-0.0258873869	-0.183782
C	 1.3059060855	-0.3956734464	-0.0123826288	 0.191346
C	-0.0048257379	-0.0115194753	 0.0018918839	-0.072828
H	 1.3491504617	 2.9092006886	 0.0048681602	 0.161879
H	-0.9553381636	-0.5150191656	 0.0083015859	 0.170346
263.9966	346.2057	369.7616	537.3045	599.7877	622.4194	679.9141	698.2915	739.7028	751.8882	772.8017	931.7141	972.2185	1034.3622	1172.884	1213.9659	1246.9803	1318.2112	1406.3671	1541.9607	1595.5454	1672.9251	3299.3632	3313.4377
O1C=C2ON=NC2=C1	o1cc2onnc2c1	
InChI=1S/C4H2N2O2/c1-3-4(2-7-1)8-6-5-3/h1-2H	InChI=1S/C4H2N2O2/c1-3-4(2-7-1)8-6-5-3/h1-2H
