10
gdb 23874	3.06645	1.76273	1.42296	2.0789	40.76	-0.3327	-0.0105	0.3222	817.7646	0.055896	-544.965185	-544.957689	-544.956745	-544.99759	25.742	
O	-0.028431575	 1.4350210719	-0.0164168212	-0.391126
C	 0.0195094802	 0.0359621498	-0.0208118815	-0.145777
C	 0.6610511363	-0.5074695857	-1.2349930878	 0.265085
N	 1.1682305873	-0.8920764833	-2.1979237192	-0.297657
C	 0.7361963534	-0.495733318	 1.2370781701	 0.282532
F	 0.06081881	-0.1496417843	 2.3299143405	-0.057029
F	 0.8450266941	-1.8233669003	 1.2030506197	-0.058348
F	 1.965154167	 0.0334860749	 1.3178345687	-0.080482
H	 0.8774508543	 1.7698669192	-0.028302343	 0.309493
H	-1.0145240775	-0.3203086341	 0.0226593038	 0.173308
63.8148	140.0333	211.306	233.2027	319.2359	382.0328	405.6058	446.3414	530.7348	560.9261	618.9302	717.3533	838.6756	962.8359	1107.9213	1178.7552	1240.6204	1269.3479	1288.8153	1351.1134	1424.3196	2368.5902	3086.3046	3788.7237
OC(C#N)C(F)(F)F	O[C@@H](C#N)C(F)(F)F	
InChI=1S/C3H2F3NO/c4-3(5,6)2(8)1-7/h2,8H	InChI=1S/C3H2F3NO/c4-3(5,6)2(8)1-7/h2,8H/t2-/m0/s1
