10
gdb 23682	4.1808	2.01692	1.36056	1.0952	49.74	-0.295	-0.0555	0.2396	776.6782	0.06283	-454.815631	-454.810069	-454.809125	-454.845564	20.415	
O	 0.1089051291	 1.2890377247	-0.0850663395	-0.369827
C	 0.0694176413	-0.0370629442	-0.0491652499	 0.476872
N	 0.0079051687	-0.6608775016	-1.2257588663	-0.281512
C	-0.0290633128	-1.9843370968	-1.1215608956	 0.087415
N	-0.0101383394	-2.6972928854	 0.0089024746	-0.310264
C	 0.0525126142	-1.9392747874	 1.0891488583	 0.367173
F	 0.073616789	-2.5678187699	 2.2401086785	-0.037528
N	 0.0949032892	-0.6227836294	 1.153624967	-0.397492
H	 0.1514526367	 1.597666889	 0.831798523	 0.318058
H	-0.0798989059	-2.5476906491	-2.0497380201	 0.147105
196.2533	211.2184	379.9516	474.4561	556.2832	585.1251	603.8759	608.5649	773.5735	841.6068	851.4717	999.3979	1028.028	1056.0226	1203.7358	1291.4857	1335.4365	1384.7338	1484.6228	1515.5532	1609.6741	1641.7469	3179.4835	3766.821
OC1=NC=NC(F)=N1	Oc1ncnc(F)n1	
InChI=1S/C3H2FN3O/c4-2-5-1-6-3(8)7-2/h1H,(H,5,6,7,8)	InChI=1S/C3H2FN3O/c4-2-5-1-6-3(8)7-2/h1H,(H,5,6,7,8)
