10
gdb 23693	3.81529	2.0519	1.3343	2.2027	53.64	-0.2582	-0.0889	0.1693	790.8106	0.060201	-458.600639	-458.594766	-458.593821	-458.630915	21.528	
F	 0.0860047019	 0.0663966046	 0.0023956801	-0.021976
C	-0.0626474183	 1.3666840486	 0.0111954532	 0.378839
C	-1.2586039055	 1.9958509665	 0.0306417025	-0.238653
N	-1.2945049468	 3.3654201273	 0.0381410078	-0.182492
C	-0.1860542954	 4.0302800026	 0.0266712231	-0.115351
C	 1.1439992173	 3.425428626	 0.0062452887	 0.398779
O	 2.2145039652	 3.9502702462	-0.0065252524	-0.300888
O	 1.0968126674	 1.9961037316	-0.0009970485	-0.214348
H	-2.1880502736	 1.4449403987	 0.0402695209	 0.144429
H	-0.2110424722	 5.1156410481	 0.0322294746	 0.151662
145.9041	208.7734	349.1106	460.3699	478.3953	526.6672	577.547	689.0464	727.9119	754.3205	836.4346	855.8943	915.2825	1023.7678	1082.7846	1161.1004	1304.8367	1375.458	1427.9429	1552.2949	1675.2128	1875.4523	3185.6901	3234.9921
FC1=CN=CC(=O)O1	Fc1cncc(=O)o1	
InChI=1S/C4H2FNO2/c5-3-1-6-2-4(7)8-3/h1-2H	InChI=1S/C4H2FNO2/c5-3-1-6-2-4(7)8-3/h1-2H
