9
gdb 23827	4.06839	2.02185	1.35063	2.0836	47.53	-0.2857	-0.0952	0.1905	770.1361	0.048095	-474.61317	-474.607336	-474.606392	-474.643671	20.62	
F	 0.0425224933	 0.0716500013	 0.0037541686	-0.019615
C	-0.0641073294	 1.3708084359	 0.0103633192	 0.456478
N	-1.2015712743	 1.9315743528	 0.0295114954	-0.399556
C	-1.1976927103	 3.3308287009	 0.0374095822	 0.38763
O	-2.1949134912	 4.0063928942	 0.0544281914	-0.309252
C	 0.1626164878	 3.9420088313	 0.0221880784	-0.036389
N	 1.2729115496	 3.3115224755	 0.0037888604	-0.032838
O	 1.1591391613	 1.8961515326	-0.0025896103	-0.226482
H	 0.2485219832	 5.0245825954	 0.0267473746	 0.180024
97.8488	203.6605	386.8676	401.6074	502.7551	548.9988	586.2719	725.329	740.6466	781.6623	895.4558	956.1503	968.1655	1023.1961	1252.4335	1298.2865	1360.4669	1659.2389	1699.5801	1825.1688	3197.2564
FC1=NC(=O)C=NO1	Fc1nc(=O)cno1	
InChI=1S/C3HFN2O2/c4-3-6-2(7)1-5-8-3/h1H	InChI=1S/C3HFN2O2/c4-3-6-2(7)1-5-8-3/h1H
