11
gdb 8791	4.64771	1.28395	1.01232	4.7037	53.84	-0.2843	-0.1361	0.1482	1038.8558	0.068751	-434.542157	-434.533789	-434.532845	-434.575914	27.313	
O	 0.0025511691	 1.4171289981	 0.0093609365	-0.394439
C	-0.005478977	 0.0191638725	 0.0019729852	-0.174071
C	-1.4403414392	-0.461596198	 0.0131398159	 0.295948
O	-2.4172176664	 0.2374915944	 0.0262343683	-0.23502
C	-1.6027917194	-1.9936753537	 0.0065517699	 0.189367
O	-0.6721158857	-2.7577168305	-0.0065139457	-0.243992
C	-2.9984663756	-2.4637583963	 0.0175808603	 0.272134
N	-4.0759133348	-2.8823873966	 0.0258052416	-0.286582
H	 0.9174935372	 1.7134012028	 0.0012573529	 0.303038
H	 0.4815488622	-0.4219505015	-0.8846669764	 0.136812
H	 0.4983524996	-0.4313157912	 0.8744152014	 0.136805
47.7293	98.5477	127.0787	219.5193	228.4781	258.9651	299.4699	401.5858	410.6066	483.7642	663.682	705.9675	776.3818	926.6882	1005.0338	1144.9208	1207.4684	1237.7407	1252.7542	1446.997	1479.784	1787.8444	1833.0882	2343.4265	2966.1374	2986.0615	3838.431
OCC(=O)C(=O)C#N	OCC(=O)C(=O)C#N	
InChI=1S/C4H3NO3/c5-1-3(7)4(8)2-6/h6H,2H2	InChI=1S/C4H3NO3/c5-1-3(7)4(8)2-6/h6H,2H2
