10
gdb 130796	3.20575	1.52352	1.03272	3.3036	63.97	-0.3088	-0.1515	0.1572	1003.7852	0.05319	-467.581881	-467.574804	-467.57386	-467.613898	24.894	
O	 0.0260211399	-0.0150395004	 0.363326168	-0.293466
C	 0.0330422363	 1.1367319352	 0.047875682	 0.464284
O	-1.1410049744	 1.7595425283	-0.3250503927	-0.255309
N	-1.22492236	 3.140408284	-0.7191487084	 0.094234
N	-0.1954931149	 3.8217948249	-0.7296315147	-0.108569
C	 1.0448981267	 3.3089889441	-0.3755095809	-0.015222
C	 1.2087756768	 2.0232016119	 0.0061769516	-0.057316
C	 2.4793066199	 1.4943619865	 0.3698928378	 0.281652
N	 3.5228424133	 1.08851882	 0.6607893974	-0.292829
H	 1.8616259364	 4.0174950655	-0.4299803001	 0.18254
93.3801	148.067	174.981	298.1348	350.5072	457.7363	507.3605	530.8827	567.6143	627.8509	655.8957	796.7577	808.5868	922.7922	965.9512	1042.1714	1105.233	1251.6851	1380.7605	1572.493	1646.4886	1862.8784	2351.8623	3227.4765
O=C1ON=NC=C1C#N	O=C1O[N]N=C[C]1C#N	
InChI=1S/C4HN3O2/c5-1-3-2-6-7-9-4(3)8/h2H	InChI=1S/C4HN3O2/c5-1-3-2-6-7-9-4(3)8/h2H
