9
gdb 21789	7.57896	1.37601	1.16457	2.19	47.61	-0.311	-0.1185	0.1924	891.0125	0.047506	-470.481913	-470.475677	-470.474733	-470.51285	21.145	
O	-0.1303832204	 0.0283084679	-0.0009674417	-0.203328
C	-0.0032010795	 1.2211397422	 0.0065505301	 0.100074
C	 1.3273840568	 1.8946309771	-0.0022752427	 0.342058
N	 2.477518132	 1.3221752712	-0.0180240214	-0.123173
O	 3.3928709557	 2.3827566899	-0.0198226762	-0.212762
C	 2.7178520404	 3.5736515558	-0.0044437178	 0.5226
O	 3.1800721318	 4.6598986841	-0.0014492132	-0.33718
O	 1.3713274361	 3.2485951506	 0.0069453569	-0.219619
H	-0.8516533429	 1.9318761612	 0.0205679959	 0.131331
98.2883	187.4128	188.3837	310.0196	417.9364	551.1537	646.7271	746.0321	768.1949	786.4727	891.4235	947.4351	998.5548	1024.0612	1145.3336	1317.8122	1431.5568	1634.3479	1831.6964	1969.0525	2960.7103
O=CC1=NOC(=O)O1	O=Cc1noc(=O)o1	
InChI=1S/C3HNO4/c5-1-2-4-8-3(6)7-2/h1H	InChI=1S/C3HNO4/c5-1-2-4-8-3(6)7-2/h1H
