11
gdb 130495	4.1797	1.76626	1.24159	2.3559	64.35	-0.2863	-0.1241	0.1622	871.1003	0.069216	-447.698155	-447.692682	-447.691738	-447.72809	21.051	
O	-0.052234565	 1.231456862	 0.0089145683	-0.115025
N	 1.1657080025	 1.8395867545	 0.0007508816	-0.178011
C	 2.0206919437	 0.8376137565	-0.0124254631	 0.261393
C	 3.4435136076	 0.7611029493	-0.0260659638	-0.027253
N	 4.0136271299	-0.4104381827	-0.0374666952	-0.243998
C	 3.2074237187	-1.5373141308	-0.0358319356	 0.070392
N	 1.9040023495	-1.6126735081	-0.0240943755	-0.298608
C	 1.302662443	-0.3945706273	-0.0121567863	 0.393282
N	 0.0070238203	-0.1293703771	 0.0012759968	-0.166411
H	 4.0683445317	 1.6511290733	-0.0272452507	 0.158566
H	 3.756076738	-2.4747380296	-0.0458108165	 0.145672
223.3569	242.2762	448.4042	455.9961	562.3619	598.1762	649.0731	654.5946	786.5136	839.6278	903.8202	924.7079	940.5316	952.8282	1019.9582	1059.7054	1089.4151	1292.9066	1341.2694	1403.2993	1428.6297	1452.1992	1549.8467	1566.3227	1643.4136	3166.9523	3186.2682
O1N=C2C=NC=NC2=N1	o1nc2cncnc2n1	
InChI=1S/C4H2N4O/c1-3-4(6-2-5-1)8-9-7-3/h1-2H	InChI=1S/C4H2N4O/c1-3-4(6-2-5-1)8-9-7-3/h1-2H
