11
gdb 21385	5.66967	2.27996	1.62606	0.931	56.83	-0.2381	-0.0236	0.2145	693.0054	0.076712	-393.592389	-393.587279	-393.586335	-393.621501	19.719	
N	 0.0153657631	 1.3230090218	 0.0094695562	-0.331277
N	 1.2837890786	 1.8163574304	 0.0000105655	-0.208232
C	 2.1149215202	 0.7681007379	-0.0140366781	-0.152638
C	 1.3495504007	-0.408094058	-0.0134093129	 0.246437
C	 0.0300477005	-0.0290973131	 0.0015415184	 0.375921
N	-0.806347521	-1.1240449772	 0.0033203361	-0.351742
C	 0.0469163638	-2.1057571521	-0.0106326986	 0.053321
O	 1.3767375964	-1.7772994292	-0.0215742215	-0.204337
H	-0.758336841	 1.9642200032	 0.0206621365	 0.283642
H	 3.1807419123	 0.9283145239	-0.0234188167	 0.130529
H	-0.1743837936	-3.1618160177	-0.0145830949	 0.158378
233.5325	356.542	450.396	479.7661	627.1812	668.9187	700.133	770.0185	771.0258	835.1123	856.8319	929.9888	985.2541	1066.98	1095.2037	1164.0911	1242.272	1311.3634	1331.7667	1397.519	1492.0761	1513.6819	1575.9598	1583.6737	3269.0746	3276.8881	3687.2292
N1N=CC2=C1N=CO2	[nH]1ncc2c1nco2	
InChI=1S/C4H3N3O/c1-3-4(7-6-1)5-2-8-3/h1-2H,(H,6,7)	InChI=1S/C4H3N3O/c1-3-4(7-6-1)5-2-8-3/h1-2H,(H,6,7)
