11
gdb 130550	3.78424	1.26852	0.95005	2.4338	64.34	-0.2866	-0.096	0.1906	1105.113	0.065036	-451.507502	-451.500169	-451.499225	-451.540254	25.574	
O	-0.0294482443	-0.0373067119	 0.0032851142	-0.261563
C	-0.036210115	 1.1722908185	 0.0067190327	 0.154495
C	 1.1736771723	 1.9652581734	 0.0006105217	 0.311996
C	 2.2010876135	 2.5906311169	-0.0047029371	-0.420813
C	-1.3217303501	 1.9368656456	 0.0173695943	 0.303587
N	-1.355675354	 3.2475533466	 0.0211037089	-0.169779
O	-2.7118940753	 3.5356339489	 0.0309332186	-0.145632
C	-3.3454840779	 2.3532990807	 0.0320672625	 0.109621
N	-2.5587464545	 1.3294545226	 0.0240364762	-0.285904
H	 3.1065747122	 3.1479728102	-0.0093975107	 0.223479
H	-4.4252123667	 2.3760204585	 0.0393623387	 0.180513
54.395	121.3939	179.0464	243.7026	282.0474	439.5028	494.0218	638.5037	664.4463	668.2752	680.5294	720.2803	832.2073	907.2844	939.9736	984.5863	986.9316	1079.2683	1118.1877	1302.6701	1389.119	1491.392	1577.011	1764.0121	2222.0736	3272.5722	3493.8574
O=C(C#C)C1=NOC=N1	O=C(C#C)c1nocn1	
InChI=1S/C5H2N2O2/c1-2-4(8)5-6-3-9-7-5/h1,3H	InChI=1S/C5H2N2O2/c1-2-4(8)5-6-3-9-7-5/h1,3H
