11
gdb 48195	2.67503	0.82594	0.65079	2.0291	75.52	-0.302	-0.0944	0.2077	1554.0661	0.063699	-414.39524	-414.386434	-414.38549	-414.430367	28.91	
O	-0.0201976311	 0.0063079709	 0.1009459718	-0.197061
C	-0.0146299613	 1.1960847733	 0.0302373603	 0.179022
C	 1.3216940213	 2.0192789604	-0.0170529237	-0.414871
C	 1.3482631366	 2.8136646525	-1.2502765978	 0.292527
N	 1.3275809574	 3.4128047658	-2.2371830114	-0.287109
C	 1.4086361192	 2.8502121833	 1.1757109274	 0.127389
C	 1.4335613761	 3.5010098737	 2.1911261258	 0.055081
C	 1.4724813104	 4.2439617059	 3.3369539075	 0.227667
N	 1.5042052463	 4.8734806221	 4.3118564621	-0.316075
H	-0.9256457197	 1.8228677612	 0.0021257117	 0.140333
H	 2.1362168749	 1.2854982709	-0.0352855836	 0.193098
49.7934	77.8702	92.3217	174.4423	207.0286	225.967	358.6347	427.7026	450.9661	500.5417	522.3651	573.9838	581.1585	778.8069	932.2717	962.7763	1033.0224	1175.1657	1203.7774	1307.9939	1396.9072	1857.4365	2273.2233	2366.9772	2407.0753	2966.4166	3055.9516
O=CC(C#N)C#CC#N	O=C[C@@H](C#N)C#CC#N	
InChI=1S/C6H2N2O/c7-3-1-2-6(4-8)5-9/h5-6H	InChI=1S/C6H2N2O/c7-3-1-2-6(4-8)5-9/h5-6H/t6-/m1/s1
