11
gdb 21815	3.77291	2.04175	1.32481	1.7037	53.74	-0.2555	-0.0556	0.1999	815.861	0.073794	-430.775379	-430.768951	-430.768006	-430.806221	22.732	
O	-0.069514443	-0.0635965879	 0.0002763808	-0.286138
C	-0.0385723031	 1.1376734455	 0.0085009968	 0.181819
N	 1.1522701931	 1.866987028	 0.0000533494	-0.171755
C	 2.446801626	 1.3715515765	-0.0184394761	 0.066418
N	 3.3262369297	 2.3152496227	-0.0214463307	-0.200231
N	 2.5912813135	 3.4807645215	-0.0043707028	-0.314905
C	 1.2306633225	 3.290346211	 0.0091951377	 0.50255
O	 0.3206124068	 4.082724889	 0.0254899569	-0.39957
H	-0.9134571314	 1.8053003774	 0.0232854252	 0.14281
H	 2.661855511	 0.316009961	-0.0285356197	 0.186858
H	 3.057949635	 4.3712604053	-0.0035108476	 0.292145
137.655	194.152	210.3714	273.843	394.1546	454.3425	620.3219	661.8969	704.9226	755.9646	842.052	865.1701	941.4647	1051.4686	1072.3686	1191.8744	1216.8704	1267.9743	1377.8583	1395.2305	1423.0959	1627.3606	1823.9896	1864.7033	3040.0068	3292.7816	3689.8017
O=CN1C=NNC1=O	O=Cn1cn[nH]c1=O	
InChI=1S/C3H3N3O2/c7-2-6-1-4-5-3(6)8/h1-2H,(H,5,8)	InChI=1S/C3H3N3O2/c7-2-6-1-4-5-3(6)8/h1-2H,(H,5,8)
