11
gdb 132838	3.05034	1.56682	1.03512	2.674	65.94	-0.2959	-0.0889	0.207	1010.6829	0.067747	-455.758965	-455.752353	-455.751409	-455.790413	23.851	
F	-0.0101289811	 0.0619296481	 0.0041424745	-0.024159
C	-0.0225562931	 1.3765251807	 0.0108845464	 0.331717
N	-1.1911342251	 1.9669656107	 0.0290217814	-0.302056
C	-1.1715047213	 3.3038372103	 0.03546316	 0.094043
N	-0.0939558368	 4.0872052515	 0.0253779128	-0.247764
C	 1.0818657421	 3.462837103	 0.0069757708	-0.013268
C	 1.1969301644	 2.0685481575	-0.0014953886	-0.056875
C	 2.4546022127	 1.4020928772	-0.0211714488	 0.230161
N	 3.4852680682	 0.8767008889	-0.0371920981	-0.319898
H	-2.1383944004	 3.7984790221	 0.0504860669	 0.150296
H	 1.9768472503	 4.07841549	-0.0015721572	 0.157803
127.106	144.2903	233.2501	376.9797	397.7196	478.1726	537.3875	597.2324	607.1803	618.4125	759.874	815.2013	902.8781	971.8076	1022.4691	1147.8793	1208.5538	1261.0279	1308.9042	1350.9542	1433.7728	1498.8171	1579.3155	1635.3834	2352.9739	3182.2788	3187.5717
FC1=NC=NC=C1C#N	Fc1ncncc1C#N	
InChI=1S/C5H2FN3/c6-5-4(1-7)2-8-3-9-5/h2-3H	InChI=1S/C5H2FN3/c6-5-4(1-7)2-8-3-9-5/h2-3H
