11
gdb 23640	3.98339	1.98153	1.32327	5.0086	57.01	-0.2466	-0.067	0.1795	812.1297	0.072653	-438.714111	-438.70806	-438.707116	-438.744677	22.446	
F	 0.0121551452	 0.0688956817	 0.0024471587	-0.052068
C	-0.0361008818	 1.3898453907	 0.0115812441	 0.353243
N	-1.1861548329	 1.9409996781	 0.0298428194	-0.320576
C	-1.2688028118	 3.3151559273	 0.0387637739	 0.437259
N	-2.357134699	 3.9503578242	 0.0561861599	-0.511003
O	-0.0387814712	 4.0541172257	 0.0263225493	-0.2257
C	 1.1294768456	 3.4121210474	 0.0069702357	 0.120239
C	 1.2263582844	 2.0696256303	-0.0019315749	-0.331081
H	-2.1889237284	 4.9548983914	 0.0594359475	 0.2323
H	 1.9731677103	 4.0934469817	-0.0006750208	 0.157811
H	 2.1703026797	 1.5472663914	-0.0178327727	 0.139575
94.1868	219.8777	373.565	397.7787	508.9032	534.0269	580.1447	707.2237	729.4097	757.8422	783.8317	822.0958	847.4593	969.5233	973.12	1072.8791	1131.4177	1207.7748	1301.271	1323.3379	1467.2862	1610.6408	1722.7595	1769.3774	3206.3181	3259.1453	3519.7272
FC1=NC(=N)OC=C1	FC1=CCOC(=N1)[NH]	
InChI=1S/C4H3FN2O/c5-3-1-2-8-4(6)7-3/h1-2,6H	InChI=1S/C4H4FN2O/c5-3-1-2-8-4(6)7-3/h1,6H,2H2
