11
gdb 21414	3.4031	2.5131	1.44558	4.3374	56.24	-0.2626	-0.0654	0.1973	763.3071	0.073645	-430.719672	-430.713426	-430.712481	-430.750293	22.896	
N	-0.1129599458	 1.2446794874	-0.3683718371	-0.497018
C	-0.0154196324	 0.0254814033	-0.038774962	 0.257823
N	-1.1291167602	-0.7279651919	 0.2913421948	-0.340834
C	-1.0260859905	-2.0394012538	 0.646085449	 0.142522
N	 0.0474834729	-2.7344850903	 0.7243655458	-0.113886
O	 1.2499807723	-2.042294985	 0.4017558729	-0.256338
C	 1.2883450218	-0.7355622436	 0.033070696	 0.409937
O	 2.3377829506	-0.2177918594	-0.2243563599	-0.307433
H	 0.8205641754	 1.6064399343	-0.5698540715	 0.257709
H	-2.0276361935	-0.2669623838	 0.2595076122	 0.28118
H	-1.9451435906	-2.5602811372	 0.8903737599	 0.16634
111.1941	156.6633	344.6603	417.488	506.516	530.0849	555.1101	558.5574	627.3212	716.3611	789.5088	911.4431	924.8133	926.8933	977.1452	1066.0995	1138.022	1207.0484	1339.1114	1425.0897	1488.8179	1710.1802	1743.448	1848.2303	3210.7382	3488.2635	3607.7943
N=C1NC=NOC1=O	[NH][C]1NC=NOC1=O	
InChI=1S/C3H3N3O2/c4-2-3(7)8-6-1-5-2/h1H,(H2,4,5,6)	InChI=1S/C3H3N3O2/c4-2-3(7)8-6-1-5-2/h1H,(H2,4,5,6)
