10
gdb 20308	6.46363	1.61526	1.29231	5.0748	64.57	-0.2632	-0.1085	0.1547	836.2555	0.059205	-372.405388	-372.399023	-372.398079	-372.436105	22.652	
C	 0.0215736508	-1.1939831076	-0.0042281306	-0.355791
C	 0.024231123	 0.0088112494	 0.0023591105	 0.276747
C	-0.0181550907	 1.4275576751	 0.0107992168	 0.215743
C	-1.225663924	 2.1368327054	 0.0307428641	-0.023907
N	-1.2264372949	 3.4579297813	 0.0380939896	-0.15347
N	-0.056043466	 4.0945123867	 0.026120857	-0.046731
N	 1.0831968737	 3.4344103586	 0.0073522241	-0.064582
N	 1.1344020074	 2.1108630561	-0.0006790196	-0.228792
H	 0.0348189311	-2.2566017918	-0.0101997381	 0.225795
H	-2.1892537002	 1.6368640868	 0.0407460462	 0.154988
103.5915	153.1342	265.1052	314.7241	501.7292	531.5037	583.5082	670.0768	678.6967	681.2091	829.1077	838.7456	882.3539	971.5287	1063.5905	1086.8567	1211.0912	1295.3121	1361.5815	1473.7205	1569.4189	2236.1753	3185.6997	3499.4563
C#CC1=CN=NN=N1	C#Cc1cnnnn1	
InChI=1S/C4H2N4/c1-2-4-3-5-7-8-6-4/h1,3H	InChI=1S/C4H2N4/c1-2-4-3-5-7-8-6-4/h1,3H
