11
gdb 131992	4.22065	1.35908	1.02804	3.2513	61.25	-0.2753	-0.121	0.1543	1022.0419	0.066366	-484.774464	-484.767783	-484.766839	-484.807032	23.339	
O	-0.0674687817	-0.0025533631	 0.0033097257	-0.309698
N	-0.0292813261	 1.2086585129	 0.0071913787	 0.409591
O	 0.975269028	 1.9099796546	 0.0026885796	-0.357213
C	-1.3218479168	 1.9533580658	 0.0174537601	 0.377406
C	-1.3193685719	 3.3477393783	 0.0207206204	-0.00109
N	-2.4810906276	 3.9862069469	 0.0299261791	-0.226149
C	-3.560843026	 3.1962215767	 0.0352692529	 0.127739
N	-3.5837670746	 1.8605005492	 0.0323969457	-0.168243
N	-2.416631642	 1.2249531102	 0.0230746626	-0.195363
H	-0.3975668183	 3.9173428554	 0.0159612297	 0.181142
H	-4.533153963	 3.6789196732	 0.0429281555	 0.161877
26.914	151.6531	245.2129	388.4223	395.5952	403.2588	520.394	632.1228	753.9564	763.4566	792.4838	870.2396	968.3271	1026.0928	1053.9123	1096.4849	1146.9775	1183.6009	1245.9327	1385.7899	1392.8927	1446.7127	1558.3317	1589.9003	1677.4097	3198.8714	3216.4767
O=N(=O)C1=CN=CN=N1	O=N(=O)c1cncnn1	
InChI=1S/C3H2N4O2/c8-7(9)3-1-4-2-5-6-3/h1-2H	InChI=1S/C3H2N4O2/c8-7(9)3-1-4-2-5-6-3/h1-2H
