11
gdb 132851	3.14268	1.47839	1.00542	3.6085	56.69	-0.2509	-0.074	0.177	1024.148	0.064528	-533.801712	-533.794633	-533.793689	-533.834038	25.658	
F	 0.0719397722	 0.0268338661	-0.2214029259	-0.033744
C	-0.073336556	 1.3222926712	-0.0746210399	 0.286121
C	-1.2006778498	 1.917957713	 0.281403817	-0.189164
O	-1.2668801906	 3.2911025991	 0.413103853	-0.19733
C	-0.1743631379	 4.067702031	 0.1800845049	 0.393847
O	-0.2408669627	 5.2514199726	 0.2961475532	-0.271057
C	 1.1069790067	 3.3532596136	-0.227651187	 0.25806
N	 2.1484688124	 4.0166484759	-0.4561310237	-0.444275
O	 1.0823727845	 1.9727407511	-0.3351904154	-0.219264
H	-2.1257778408	 1.4074674804	 0.4908193594	 0.167574
H	 2.925130152	 3.4064367661	-0.7179364356	 0.249233
65.5439	104.7476	334.722	336.9434	380.8028	435.2422	461.9454	494.0119	595.6289	618.9513	675.7492	764.4247	789.7899	808.3658	921.4877	972.2029	1051.4853	1139.4353	1179.8796	1292.5996	1327.1811	1379.5543	1752.7347	1804.1865	1876.582	3276.7473	3483.7005
FC1=COC(=O)C(=N)O1	FC1=COC(=O)[C]([NH])O1	
InChI=1S/C4H2FNO3/c5-2-1-8-4(7)3(6)9-2/h1,6H	InChI=1S/C4H2FNO3/c5-2-1-8-4(7)3(6)9-2/h1,6H
