10
gdb 132343	2.05072	1.66611	0.91926	2.0367	53.91	-0.2976	-0.0753	0.2223	1094.3041	0.052827	-549.926388	-549.918717	-549.917773	-549.959834	25.985	
O	 0.1854061171	 1.4502895203	 0.007837656	-0.364885
C	-0.0365835511	 0.1339419393	 0.0036467063	 0.508349
N	 1.157361398	-0.5919381324	-0.0065375942	-0.453359
C	 1.116711126	-1.8675238928	-0.0122081854	 0.414398
F	 2.2725387512	-2.4927418668	-0.0233890034	-0.032567
N	 0.1032216343	-2.7616025343	-0.0116903517	-0.409564
C	-1.1270596247	-2.6381602968	-0.0043863051	 0.588106
O	-2.2614844223	-2.8535373556	 0.0005934599	-0.220883
O	-1.1669144656	-0.3061586351	 0.0079962735	-0.347142
H	 1.1441861969	 1.5825304343	 0.0028948241	 0.317547
55.974	114.3728	141.2915	192.1659	281.4459	418.3045	445.26	543.1288	578.3897	612.9326	632.471	725.2581	741.4507	809.1271	870.1451	1051.3939	1223.4718	1277.6607	1379.0899	1519.6097	1668.3245	1811.1218	2324.0223	3772.1197
OC1=NC(F)=NC(=O)O1	OC(=O)[N]C(=[N]=C=O)F	
InChI=1S/C3HFN2O3/c4-1-5-2(7)9-3(8)6-1/h(H,5,6,7,8)	InChI=1S/C3HFN2O3/c4-2(5-1-7)6-3(8)9/h(H,8,9)
