11
gdb 133390	3.38952	1.45269	1.01687	2.9403	56.17	-0.2653	-0.0687	0.1966	1016.7601	0.06488	-529.976737	-529.969195	-529.968251	-530.010375	26.605	
N	 0.0254336882	 1.3218829884	 0.0115815098	-0.542158
C	-0.0558389256	-0.0171487944	 0.0014973514	 0.351716
N	-1.2112956404	-0.6118217603	 0.0047008401	-0.2112
O	-1.126912494	-2.0385416796	-0.0032898505	-0.215378
C	 0.0537529965	-2.6098015929	-0.0131767407	 0.445583
F	-0.0923036546	-3.9071976436	-0.0177906432	-0.025002
N	 1.2253902222	-2.100269704	-0.0179111511	-0.413873
C	 1.2790208055	-0.7221875709	-0.0117511474	 0.379642
O	 2.300221035	-0.0720436368	-0.0164003046	-0.340374
H	 0.9528744124	 1.7157010689	 0.0012026617	 0.290716
H	-0.7955326252	 1.9009866653	 0.0136175544	 0.280329
17.3881	146.5589	191.1044	321.5145	325.0054	397.7215	454.2968	493.8978	540.6064	588.9085	618.1561	709.1237	748.7145	821.6625	824.8366	943.1108	1038.3001	1123.5909	1274.9913	1388.1871	1455.2294	1581.6315	1651.7903	1674.2671	1807.0594	3599.1556	3742.3325
NC1=NOC(F)=NC1=O	Nc1noc(F)nc1=O	
InChI=1S/C3H2FN3O2/c4-3-6-2(8)1(5)7-9-3/h(H2,5,7)	InChI=1S/C3H2FN3O2/c4-3-6-2(8)1(5)7-9-3/h(H2,5,7)
