10
gdb 8721	4.79602	1.34207	1.04863	2.8783	55.86	-0.257	-0.1375	0.1194	997.7633	0.055968	-417.245743	-417.237597	-417.236652	-417.280127	26.397	
O	-0.0436263345	-0.0172650775	 0.0022236031	-0.205909
C	-0.035410753	 1.1829366986	 0.0064048746	 0.085446
C	 1.3113982938	 1.9513205614	-0.0003138841	 0.213109
O	 2.3670737147	 1.3783535627	-0.0119762532	-0.232386
C	 1.2161062191	 3.4897228245	 0.0090465421	 0.108738
O	 0.1301480001	 4.0309380521	 0.0222235166	-0.261172
C	 2.4704524243	 4.1986581821	 0.0013606423	 0.29322
C	 3.5180105788	 4.7910626094	-0.005205654	-0.367454
H	-0.9514811299	 1.7978627854	 0.0149252799	 0.136355
H	 4.4431656066	 5.3161214013	-0.0115240372	 0.230053
24.2622	58.4078	122.3676	222.2188	225.8402	319.7103	402.0407	410.0495	489.5243	662.1677	681.5761	724.1435	737.2362	842.1046	920.8937	1010.61	1223.6839	1392.909	1749.0756	1811.5221	1834.5499	2216.4883	2996.0624	3489.8002
O=CC(=O)C(=O)C#C	O=CC(=O)C(=O)C#C	
InChI=1S/C5H2O3/c1-2-4(7)5(8)3-6/h1,3H	InChI=1S/C5H2O3/c1-2-4(7)5(8)3-6/h1,3H
