10
gdb 21870	2.43378	1.30878	0.87777	0.9469	50.55	-0.2776	-0.0348	0.2428	1169.4585	0.055036	-446.856209	-446.846243	-446.845299	-446.896172	28.842	
O	-0.2373132941	 1.5512671045	-0.0565433109	-0.363657
C	-0.1497616947	 0.222014466	 0.113299688	 0.435896
N	-1.3910837673	-0.3541229222	-0.1771202317	-0.349964
C	-1.6943175768	-1.5120290628	 0.1045194984	 0.53961
N	-2.168087048	-2.5701285245	 0.4457081683	-0.515392
N	 1.0789205626	-3.458702478	-0.5442410352	-0.011071
N	 2.1720500437	-3.3756857076	-0.4767120325	 0.009542
O	 0.8555496423	-0.3575428338	 0.4384831699	-0.361491
H	 0.641798444	 1.9029572934	 0.1424866259	 0.314167
H	-1.9885136916	-3.442608405	-0.0297173703	 0.302359
16.2516	33.839	41.3886	45.6919	63.151	86.6347	138.7563	402.3561	490.1239	534.3264	569.3991	615.9776	690.4023	790.3172	830.6893	879.9548	1185.4979	1350.2675	1460.5197	1812.8981	2259.9439	2434.9116	3642.6416	3782.2721	16.2525	33.8388	41.3878	45.6916	63.1506	86.6342	138.756	402.3554	490.1238	534.3264	569.3989	615.9769	690.4025	790.317	830.6892	879.9547	1185.4978	1350.2677	1460.5197	1812.8983	2259.9445	2434.9116	3642.6419	3782.2713
OC1=NC(=N)N=NO1	OC(=O)[N][C][NH].N#N	
InChI=1S/C2H2N4O2/c3-1-4-2(7)8-6-5-1/h(H2,3,4,7)	InChI=1S/C2H2N2O2.N2/c3-1-4-2(5)6;1-2/h3H,(H,5,6);
