11
gdb 20511	9.61252	1.0225	0.92956	3.9096	64.92	-0.2761	-0.0773	0.1988	1164.414	0.070635	-393.501407	-393.494155	-393.493211	-393.53562	23.952	
C	-0.0520006537	 1.4560892464	 0.0158059485	-0.509394
C	 0.0013644808	 0.0057855799	-0.0061837456	 0.222166
C	 0.0491398584	-1.19757811	-0.0263366018	 0.008798
C	 0.0815538138	-2.6043962389	-0.0376876887	 0.23814
N	 1.0458159469	-3.3409695563	-0.5348912448	-0.148169
O	 0.6503018698	-4.6106339455	-0.3248418773	-0.138835
N	-0.5934014062	-4.6013399625	 0.3201014271	 0.020712
N	-0.9299946112	-3.4079643455	 0.4900166127	-0.196698
H	 0.8286480496	 1.871518862	 0.5169588392	 0.167656
H	-0.0829997804	 1.8609976206	-1.0012970186	 0.167614
H	-0.942597178	 1.8055522097	 0.5478398593	 0.16801
7.9736	97.946	111.735	308.2142	325.5572	486.1865	489.922	531.8366	657.4816	668.5297	780.419	954.8803	994.2549	1047.715	1051.0452	1061.9437	1114.3679	1280.1901	1410.0835	1469.5151	1469.8396	1503.9858	1565.7863	2376.7975	3034.7024	3099.5561	3104.5374
CC#CC1=NON=N1	CC#Cc1nonn1	
InChI=1S/C4H3N3O/c1-2-3-4-5-7-8-6-4/h1H3	InChI=1S/C4H3N3O/c1-2-3-4-5-7-8-6-4/h1H3
