11
gdb 133411	3.13397	1.41521	0.97495	1.3921	58.9	-0.255	-0.0868	0.1681	1048.1327	0.063785	-537.899869	-537.892895	-537.891951	-537.931717	25.781	
F	 0.0636375502	 0.0607127593	-0.1021377199	-0.03099
C	-0.0299803006	 1.375703032	-0.0450782624	 0.205915
C	-1.1844287853	 2.0474999105	-0.0827436471	-0.29615
C	-1.1589810705	 3.4972638799	-0.0122368891	 0.430456
N	-2.2054829304	 4.2080963361	-0.0416712511	-0.519052
O	 0.0988876655	 4.1032891364	 0.0923810233	-0.293116
N	 1.2900798146	 3.3951301772	 0.1305865055	-0.119042
C	 1.2048436034	 2.1249320372	 0.0651575972	 0.246885
F	 2.3287844866	 1.4367655394	 0.0995845086	-0.030875
H	-2.1467165017	 1.561110986	-0.1639837034	 0.167267
H	-1.9802834918	 5.2016574759	 0.0191186983	 0.2387
86.1303	191.048	285.037	354.8851	369.3472	392.4127	439.3097	526.5815	593.7298	665.2336	707.0662	715.3818	788.6645	848.1637	875.7398	919.1059	1016.9251	1082.8122	1233.2711	1273.1075	1313.9239	1470.287	1654.721	1712.5833	1748.8606	3240.271	3493.6243
FC1=CC(=N)ON=C1F	F[C]1C=C([NH])ON=C1F	
InChI=1S/C4H2F2N2O/c5-2-1-3(7)9-8-4(2)6/h1,7H	InChI=1S/C4H2F2N2O/c5-2-1-3(7)9-8-4(2)6/h1,7H
