11
gdb 132403	2.008	1.84411	0.96129	2.6465	55.41	-0.2774	-0.0337	0.2437	1049.5799	0.066329	-538.013552	-538.007082	-538.006138	-538.044751	24.422	
O	 0.0982588804	 1.3210715988	 0.0718611181	-0.39887
C	 0.0709224085	-0.0131621957	 0.0547877873	 0.474228
N	 0.0730740319	-0.6154595909	-1.1366906494	-0.410206
C	 0.0454341206	-1.9343185227	-1.0952565552	 0.360126
F	 0.0470133715	-2.535995667	-2.2644856451	-0.045488
N	 0.0160467459	-2.7301289048	-0.0443019924	-0.373317
C	 0.0150605123	-2.0900020336	 1.1140093148	 0.372466
F	-0.0137871187	-2.8510279385	 2.1903383728	-0.047708
C	 0.0416934172	-0.7154993715	 1.2602965858	-0.384084
H	 0.1155749936	 1.6134406111	-0.8511594871	 0.312917
H	 0.0400850169	-0.2245142952	 2.2217181405	 0.139937
195.7326	223.0806	246.6154	353.2688	367.0141	528.0756	562.6034	565.4804	633.3233	639.2374	714.9501	728.5268	804.2186	854.9369	1001.3737	1041.5777	1098.3072	1184.5522	1252.2023	1343.8124	1473.819	1491.8783	1501.5349	1641.6165	1656.4697	3250.7195	3760.0698
OC1=NC(F)=NC(F)=C1	Oc1nc(F)nc(F)c1	
InChI=1S/C4H2F2N2O/c5-2-1-3(9)8-4(6)7-2/h1H,(H,7,8,9)	InChI=1S/C4H2F2N2O/c5-2-1-3(9)8-4(6)7-2/h1H,(H,7,8,9)
