11
gdb 21969	5.44078	1.74353	1.3204	4.8973	59.02	-0.2676	-0.0884	0.1793	826.767	0.072826	-434.476794	-434.470778	-434.469834	-434.507435	21.629	
O	-0.0396906604	 0.0173428082	 0.0048459346	-0.373868
N	-0.0443371907	 1.2459091716	 0.0081464113	 0.342653
O	 0.9397456785	 1.9726148505	 0.0031546634	-0.355293
C	-1.3351312719	 1.8619488326	 0.0188344348	 0.452762
C	-2.5810194663	 1.310257474	 0.026454304	-0.223046
C	-3.4755851117	 2.4189234582	 0.035601206	-0.170636
C	-2.6933048802	 3.5374262311	 0.0327205707	 0.007193
O	-1.3802937548	 3.2097704771	 0.0224865166	-0.135938
H	-2.8066826284	 0.2574919199	 0.025485334	 0.157684
H	-4.5533785249	 2.3895325892	 0.0432851449	 0.136315
H	-2.9076380393	 4.5934395877	 0.0368153397	 0.162174
89.7272	200.2395	231.6354	443.8623	537.0875	604.8587	622.2949	769.8468	783.3031	827.4723	852.5678	898.0744	900.4598	962.8351	1033.498	1103.9156	1184.5555	1239.2715	1273.8729	1399.3057	1420.768	1503.2739	1603.1361	1633.0818	3264.906	3288.8103	3294.3126
O=N(=O)C1=CC=CO1	O=N(=O)c1ccco1	
InChI=1S/C4H3NO3/c6-5(7)4-2-1-3-8-4/h1-3H	InChI=1S/C4H3NO3/c6-5(7)4-2-1-3-8-4/h1-3H
