11
gdb 16264	3.48946	1.99386	1.4333	4.7268	57.57	-0.2774	-0.0612	0.2162	810.4642	0.070974	-397.374808	-397.368245	-397.367301	-397.405788	23.66	
O	-0.0598725761	-0.0002848538	-0.0077584113	-0.258786
C	-0.0516145388	 1.1852902329	 0.0516703338	 0.371689
C	-1.1458031529	 2.2872592571	 0.1739112046	-0.366023
C	-0.0284862722	 3.309109784	-0.0693366884	-0.038838
O	 0.9086797018	 3.1386766795	 0.9804074955	-0.251198
C	 1.0362230801	 2.2640826527	-0.1628869001	 0.207722
C	 2.2707964653	 2.2153936237	-0.8746884448	 0.199137
N	 3.2550714955	 2.1257938443	-1.4744774722	-0.325736
H	-1.8684546271	 2.1880151279	-0.6412905427	 0.153964
H	-1.6633605698	 2.3799358338	 1.1297583147	 0.156456
H	-0.0556254358	 4.259228838	-0.5874723591	 0.151613
118.9096	150.4941	202.1663	380.9318	413.8672	524.36	539.0064	600.2824	632.496	693.0717	807.9803	865.0994	923.2262	963.7009	985.4482	1042.6587	1128.8998	1153.1675	1215.8368	1258.7497	1393.708	1443.8932	1922.589	2359.8434	3075.8257	3142.087	3215.8751
O=C1CC2OC12C#N	O=C1C[C@H]2O[C@@]12C#N	
InChI=1S/C5H3NO2/c6-2-5-3(7)1-4(5)8-5/h4H,1H2	InChI=1S/C5H3NO2/c6-2-5-3(7)1-4(5)8-5/h4H,1H2/t4-,5+/m1/s1
