10
gdb 35165	2.67629	1.33545	1.01918	2.7749	62.9	-0.3517	-0.0875	0.2641	1080.4179	0.052479	-430.444462	-430.436498	-430.435554	-430.477527	27.102	
N	-0.1169227463	-1.152543177	 0.0140740817	-0.28992
C	-0.0391124927	-0.0004158155	 0.0163532681	 0.340839
C	 0.0160215089	 1.4428079506	-0.0086773034	-0.14446
O	 0.5307790113	 2.102728879	 1.1390250903	-0.213483
C	 1.3313583664	 2.1632300365	-0.0387632783	 0.142518
C	 2.5750587033	 1.4188835981	-0.0162554729	 0.294503
N	 3.5705189048	 0.8346435496	-0.0106648814	-0.294137
C	 1.3903053223	 3.4523016946	-0.7029373503	 0.271146
N	 1.4224551059	 4.4729604771	-1.2413641615	-0.290318
H	-0.8271271639	 1.934265377	-0.4900001823	 0.183312
99.1845	113.0407	135.6297	215.293	244.9021	280.4289	452.4376	477.3003	495.3737	585.9972	592.5674	636.3032	667.7959	856.4629	933.283	1005.9107	1066.5446	1209.3446	1295.3908	1401.6138	2370.1496	2375.1971	2375.5974	3149.7333
N#CC1OC1(C#N)C#N	N#C[C@H]1OC1(C#N)C#N	
InChI=1S/C5HN3O/c6-1-4-5(2-7,3-8)9-4/h4H	InChI=1S/C5HN3O/c6-1-4-5(2-7,3-8)9-4/h4H/t4-/m1/s1
