10
gdb 131035	4.98297	1.20369	1.01489	2.7965	60.37	-0.2725	-0.1294	0.1432	1042.0558	0.052223	-500.84478	-500.837856	-500.836912	-500.876675	24.33	
O	-0.07358429	-0.0120440225	 0.2621980499	-0.21791
C	-0.0192169503	 1.1686412214	 0.1401038183	 0.221801
N	 1.2156602114	 1.8884465654	 0.0012037871	-0.02066
N	 2.3593309122	 1.1953989968	-0.3054762132	 0.003681
N	 3.4223882989	 1.863381388	-0.3598848221	-0.161643
C	 3.3595098592	 3.232398239	 0.0384134114	 0.471317
O	 4.2727931507	 3.7849500612	 0.5751996228	-0.258144
N	 2.1457062056	 3.9078867132	-0.2893559526	-0.174956
N	 1.0890877936	 3.2285914941	-0.2333409596	-0.0174
H	-0.8575698513	 1.8816703035	 0.137771338	 0.153914
80.4682	161.6765	220.3639	260.6125	395.1449	421.386	493.666	544.8261	643.0686	661.7572	759.7376	804.0391	833.5698	965.6735	981.5219	1028.0504	1173.4128	1260.214	1396.6618	1496.7807	1561.7789	1858.5815	1877.0803	3042.9664
O=CN1N=NC(=O)N=N1	O=Cn1nnc(=O)nn1	
InChI=1S/C2HN5O2/c8-1-7-5-3-2(9)4-6-7/h1H	InChI=1S/C2HN5O2/c8-1-7-5-3-2(9)4-6-7/h1H
