11
gdb 23626	4.0159	1.99111	1.33113	2.8942	56.13	-0.252	-0.0388	0.2132	809.2827	0.073504	-438.713803	-438.707889	-438.706945	-438.744113	21.959	
F	 0.0423958126	 0.084045209	 0.0823476109	-0.036613
C	-0.0815086838	 1.383966232	 0.006999986	 0.406831
N	-1.1970857634	 1.9510591001	 0.1472168512	-0.409924
C	-1.2441595816	 3.3664689799	 0.0531390014	 0.339526
N	-2.3194657928	 4.038615617	 0.1786298915	-0.519407
C	 0.0393568794	 4.022778359	-0.2017779284	-0.151386
C	 1.1457197727	 3.2931586556	-0.3281141805	 0.048488
O	 1.1282235343	 1.9161828965	-0.2263538329	-0.203056
H	-3.0982300241	 3.3994672575	 0.3505999098	 0.227313
H	 0.0723384993	 5.1004058389	-0.284641489	 0.140531
H	 2.1473641674	 3.6517859344	-0.5157856099	 0.157698
131.0112	213.7978	373.1948	400.1532	520.837	534.836	570.6649	699.6898	754.7611	774.7992	840.6014	924.4766	938.5522	966.1187	982.5144	1032.7346	1158.8467	1238.031	1309.5364	1375.7796	1419.4982	1661.1634	1727.3815	1757.1483	3234.1298	3256.7921	3467.2605
FC1=NC(=N)C=CO1	FC1=NC(=CCO1)[NH]	
InChI=1S/C4H3FN2O/c5-4-7-3(6)1-2-8-4/h1-2,6H	InChI=1S/C4H4FN2O/c5-4-7-3(6)1-2-8-4/h1,6H,2H2
