10
gdb 132137	3.11071	1.44056	0.9846	3.3044	54.67	-0.265	-0.0939	0.1711	1019.7545	0.051562	-557.844319	-557.837288	-557.836344	-557.87633	25.063	
F	 0.0543305601	 0.0463611768	 0.0030196569	-0.002703
C	-0.043901272	 1.347137835	 0.0108945804	 0.324817
C	-1.2423288822	 2.0004792498	 0.0308619167	-0.013302
F	-2.4025088482	 1.3476671598	 0.0437629831	-0.048669
C	-1.1803585608	 3.4043608318	 0.0370102262	-0.039816
N	-0.077861108	 4.1102869953	 0.0251706736	-0.323549
C	 1.1309856948	 3.4980867332	 0.0052857304	 0.474062
O	 2.227992423	 3.9401308802	-0.0078869021	-0.290086
O	 1.086256186	 1.9756235905	-0.0017097142	-0.241654
H	-2.1210205628	 3.9536435877	 0.0528607189	 0.1609
85.6816	186.1654	239.3633	302.3147	333.2271	438.4503	447.2945	474.1773	599.0536	648.1441	704.6858	766.0834	772.9299	829.1643	997.0266	1000.0632	1254.1538	1308.086	1424.1412	1453.6811	1549.4087	1728.3248	1941.2002	3150.3655
FC1=C(F)C=NC(=O)O1	Fc1c(F)cnc(=O)o1	
InChI=1S/C4HF2NO2/c5-2-1-7-4(8)9-3(2)6/h1H	InChI=1S/C4HF2NO2/c5-2-1-7-4(8)9-3(2)6/h1H
