11
gdb 25550	5.87489	0.89289	0.80863	3.1581	54.84	-0.2643	-0.0383	0.226	1279.6534	0.064332	-529.688787	-529.681442	-529.680498	-529.722157	25.246	
O	 0.0584807678	-0.0054428911	 0.1514746341	-0.219104
C	 0.2283405325	 1.1285593571	-0.1351880727	 0.172255
O	 0.5746808653	 2.0714393191	 0.8267665062	-0.210734
C	 0.7912566968	 3.3268866236	 0.4097426517	 0.367914
C	 1.7843307344	 3.9164715196	-0.2496140999	-0.158314
O	 1.4773190556	 5.2604923409	-0.3719924083	-0.205934
C	 0.2698166596	 5.4693929589	 0.2369053063	 0.52601
O	-0.3012919798	 6.5026461227	 0.3276238294	-0.350328
O	-0.1714184207	 4.2579341407	 0.7254336632	-0.223139
H	 0.161548722	 1.5853422882	-1.1367587806	 0.117573
H	 2.7184242565	 3.5688638304	-0.6510029395	 0.183801
33.3999	118.19	146.0993	235.9006	357.9658	410.0677	477.583	583.5268	644.8315	736.4369	750.0315	778.0349	822.2226	920.6776	964.632	1028.3588	1055.6028	1071.0831	1141.7033	1298.0909	1328.0147	1397.1385	1748.9735	1908.3714	1959.3396	3009.2629	3312.7843
O=COC1=COC(=O)O1	O=COc1coc(=O)o1	
InChI=1S/C4H2O5/c5-2-8-3-1-7-4(6)9-3/h1-2H	InChI=1S/C4H2O5/c5-2-8-3-1-7-4(6)9-3/h1-2H
