11
gdb 21616	7.04275	1.38238	1.15702	7.8542	59.59	-0.2517	-0.0339	0.2179	928.6222	0.075107	-389.798537	-389.79192	-389.790976	-389.829256	24.051	
N	 0.0216866232	 1.3612023527	 0.1436477259	-0.604506
C	-0.0359361369	-0.0062788449	 0.0380473105	 0.424784
N	-1.132864237	-0.739793255	 0.0488987435	-0.350353
C	-0.6356911464	-2.0134410718	 0.0000220444	 0.245943
N	 0.683025415	-2.1175442699	-0.0480409649	-0.255938
N	 1.0553500345	-0.8111163907	-0.0195309003	-0.238196
C	-1.474929117	-3.1674805528	-0.0085390673	 0.276182
N	-2.1639915713	-4.0955187328	-0.0158646126	-0.331124
H	 0.7507913105	 1.8195693539	-0.3835161628	 0.264525
H	-0.8823591028	 1.7920357327	 0.009951898	 0.280977
H	 2.0338156783	-0.5745319614	-0.0004610743	 0.287706
149.9101	163.7965	273.8963	317.3334	388.5926	485.0646	531.5251	558.6442	590.4289	619.0326	742.761	765.9036	776.6594	1020.3033	1055.2927	1120.633	1158.7672	1327.7414	1388.7669	1469.9087	1514.2665	1609.6546	1667.7632	2368.577	3569.6104	3663.0707	3670.4496
NC1=NC(=NN1)C#N	Nc1nc(n[nH]1)C#N	
InChI=1S/C3H3N5/c4-1-2-6-3(5)8-7-2/h(H3,5,6,7,8)	InChI=1S/C3H3N5/c4-1-2-6-3(5)8-7-2/h(H3,5,6,7,8)
