11
gdb 128864	9.59893	0.66074	0.61819	2.6085	81.45	-0.2721	-0.0763	0.1958	1607.9879	0.06692	-414.387557	-414.380405	-414.379461	-414.420061	25.15	
N	 0.0612413595	-3.7222696575	-0.0188483288	-0.328686
C	 0.0400001866	-2.5600800987	-0.0120182832	 0.162635
C	 0.0145292982	-1.1975810243	-0.0040037764	 0.248279
C	-0.0139672352	 0.0129180732	 0.0031940782	-0.065819
C	-0.0237558914	 1.4163171632	 0.0112451517	 0.009639
C	-1.0973865203	 2.2675796321	 0.0301191821	-0.030742
O	-0.6887271142	 3.5318885874	 0.0319188068	-0.147029
N	 0.7086828685	 3.5683461639	 0.0138034879	-0.100422
C	 1.0892485026	 2.3214334209	 0.001747295	-0.087353
H	-2.1629552579	 2.0999187305	 0.0431376251	 0.17981
H	 2.1420551736	 2.0802467794	-0.0134250484	 0.159689
76.7299	86.0574	229.1777	229.8968	426.7881	466.3637	493.9231	580.0295	587.4939	613.0908	664.3465	855.0952	874.0647	911.2536	926.5014	934.1868	1057.875	1168.7704	1215.5736	1323.871	1354.5342	1493.751	1622.971	2264.6345	2384.712	3258.3006	3274.276
N#CC#CC1=CON=C1	N#CC#Cc1conc1	
InChI=1S/C6H2N2O/c7-3-1-2-6-4-8-9-5-6/h4-5H	InChI=1S/C6H2N2O/c7-3-1-2-6-4-8-9-5-6/h4-5H
