11
gdb 129083	3.68696	1.31363	0.96855	2.0497	69.08	-0.2934	-0.1033	0.1901	1083.7815	0.066459	-447.700548	-447.693511	-447.692567	-447.73263	25.092	
N	-0.1119520154	 1.3125451399	 0.0080487516	-0.496956
C	-0.012367491	 0.043989483	 0.0009520027	 0.31986
C	-1.2245494353	-0.7826838524	 0.0030476636	 0.058865
N	-1.2602779416	-2.0613945439	-0.0033789646	-0.064619
O	 0.0029214894	-2.7054572348	-0.0130940841	-0.252205
C	 1.1127369958	-1.9383286938	-0.0145757764	 0.344262
N	 1.2017531976	-0.6658494777	-0.0088012215	-0.343825
C	 2.3000528099	-2.759561645	-0.0256194883	 0.305139
N	 3.2527049784	-3.4123916071	-0.0344193914	-0.292112
H	 0.821153431	 1.7320583526	 0.0054428002	 0.244025
H	-2.1953716588	-0.2959272406	 0.0105239783	 0.177567
90.1675	135.2917	156.1154	381.3434	396.1971	411.9372	494.8877	528.1919	568.7237	705.8156	729.5067	766.5978	862.0602	934.755	942.6855	976.1037	982.7474	1134.2149	1223.4468	1290.7427	1382.5486	1643.5755	1683.4375	1723.3002	2369.8749	3196.3364	3461.6724
N=C1C=NOC(=N1)C#N	[NH]C1=N[C](ON=C1)C#N	
InChI=1S/C4H2N4O/c5-1-4-8-3(6)2-7-9-4/h2,6H	InChI=1S/C4H2N4O/c5-1-4-8-3(6)2-7-9-4/h2,6H
