11
gdb 133471	3.60993	1.21008	1.07659	4.9843	49.	-0.2886	-0.0241	0.2645	1028.3185	0.064053	-579.227455	-579.220472	-579.219528	-579.260276	24.784	
F	-0.5745796295	 0.2725390289	-0.3740865909	-0.064175
C	 0.006056994	 1.4017515721	 0.0450099462	 0.244152
F	 1.3006781242	 1.1338876481	 0.246112291	-0.064315
F	-0.0781825033	 2.3021121429	-0.9507831171	-0.081241
C	-0.648963257	 1.9442424955	 1.2723833314	 0.15543
C	-1.2629177873	 3.1602875168	 1.4406254797	-0.162575
N	-1.67165209	 3.1246640496	 2.7264995407	-0.156894
N	-1.3357312814	 1.9624024233	 3.3244651683	-0.098167
N	-0.714011934	 1.2454951953	 2.4396004859	-0.240883
H	-1.4295271599	 3.9960452161	 0.7838085887	 0.175096
H	-2.1679843359	 3.8254471914	 3.2546093161	 0.293571
34.972	148.9618	178.5556	374.631	398.1733	412.7596	556.7297	582.8677	602.2696	703.5751	750.3886	755.0896	832.543	986.8945	1001.8546	1040.7485	1126.9908	1171.589	1193.4849	1200.0184	1289.7969	1341.8353	1378.6571	1494.2233	1604.2279	3299.537	3654.5223
FC(F)(F)C1=CNN=N1	FC(F)(F)c1c[nH]nn1	
InChI=1S/C3H2F3N3/c4-3(5,6)2-1-7-9-8-2/h1H,(H,7,8,9)	InChI=1S/C3H2F3N3/c4-3(5,6)2-1-7-9-8-2/h1H,(H,7,8,9)
