11
gdb 24011	1.95545	1.91921	0.96858	5.9008	69.17	-0.2826	-0.0583	0.2243	1078.5114	0.067641	-414.459534	-414.452498	-414.451554	-414.491533	25.172	
N	 0.014580603	-1.1460103885	-0.0029236478	-0.326696
C	 0.009778663	 0.0109392026	 0.0027175597	 0.216347
C	 0.0019377395	 1.4268936959	 0.0106036407	 0.056929
C	-1.0959753673	 2.2359038166	 0.0289207559	-0.074046
O	-0.7248380825	 3.5345446356	 0.0313243902	-0.122942
C	 0.6249034207	 3.5807071137	 0.0144833256	-0.074044
C	 1.1443924206	 2.3196775712	 0.0011899255	 0.056959
C	 2.5163307198	 1.9697142252	-0.0179519523	 0.21635
N	 3.6375686851	 1.6848143558	-0.033620355	-0.326708
H	-2.1531714734	 2.0322647843	 0.0411416718	 0.188927
H	 1.0780984214	 4.5573824875	 0.0140545357	 0.188922
103.6347	159.2891	194.4728	209.4429	469.6572	485.7577	505.6448	555.3422	617.914	641.0227	643.4815	696.0923	815.1581	819.0356	897.4678	1100.4226	1161.6995	1203.5765	1248.2866	1316.5287	1362.1104	1571.8594	1602.1274	2359.1248	2361.2985	3292.7705	3297.6696
N#CC1=COC=C1C#N	N#Cc1cocc1C#N	
InChI=1S/C6H2N2O/c7-1-5-3-9-4-6(5)2-8/h3-4H	InChI=1S/C6H2N2O/c7-1-5-3-9-4-6(5)2-8/h3-4H
