9
gdb 21820	3.92152	2.06053	1.35077	0.7355	47.32	-0.3175	-0.096	0.2215	780.7822	0.047857	-466.641065	-466.634905	-466.633961	-466.671816	21.031	
O	-0.0378873072	-0.0522278864	-0.0006117229	-0.234414
C	-0.0103665278	 1.1395905047	 0.0077631955	 0.196121
N	 1.1869510204	 1.8962970795	 0.0001537312	-0.168288
N	 2.4334840124	 1.3481777712	-0.0173830334	-0.009852
N	 3.2798190218	 2.2595539395	-0.0201903218	 0.062995
O	 2.6251413791	 3.5199546482	-0.0038644425	-0.23052
C	 1.2773646538	 3.296340066	 0.0092502933	 0.5839
O	 0.4077980676	 4.1112548169	 0.0246442623	-0.35768
H	-0.87501564	 1.8209216404	 0.0220127582	 0.157738
127.3526	196.8893	214.5907	282.5344	393.2541	584.9554	666.234	689.329	764.0967	781.0238	855.1575	1008.6949	1035.5929	1115.2811	1191.5834	1324.143	1416.6448	1545.8795	1857.0124	1916.5305	3040.047
O=CN1N=NOC1=O	O=Cn1nnoc1=O	
InChI=1S/C2HN3O3/c6-1-5-2(7)8-4-3-5/h1H	InChI=1S/C2HN3O3/c6-1-5-2(7)8-4-3-5/h1H
