10
gdb 14562	232663.78879	0.57031	0.57031	0.0096	119.42	-0.2383	-0.0774	0.1609	1770.3454	0.058203	-305.7702	-305.762411	-305.761467	-305.797957	27.635	
C	 0.1035532839	-7.6953131501	-0.04210294	-0.733447
C	 0.0909982954	-6.4852242025	-0.0318760837	 0.123687
C	 0.0749781309	-5.1351384877	-0.0232974855	-0.30353
C	 0.0598854852	-3.9138009877	-0.0160059685	 0.714151
C	 0.042577277	-2.5724434513	-0.0086747988	 0.714267
C	 0.0248551195	-1.3511851781	-0.0032064289	-0.30379
C	 0.0011254345	-0.0012235298	 0.0005739066	 0.123492
C	-0.0201749195	 1.208802078	 0.0053074539	-0.73317
H	 0.1121799067	-8.7576208997	-0.0532940802	 0.199169
H	-0.0350916036	 2.270978619	 0.0111868051	 0.199172
62.1554	168.1762	169.0315	295.0206	295.6338	469.7201	472.2027	488.8281	489.0903	489.1324	564.9811	570.5489	606.4285	606.6174	800.7379	800.9848	946.6245	1351.0006	2117.2269	2196.0653	2284.2488	2307.3134	3497.7069	3498.8096
C#CC#CC#CC#C	C#CC#CC#CC#C	
InChI=1S/C8H2/c1-3-5-7-8-6-4-2/h1-2H	InChI=1S/C8H2/c1-3-5-7-8-6-4-2/h1-2H
