11
gdb 21783	5.74878	1.64107	1.27664	1.7512	59.62	-0.2547	-0.1161	0.1386	847.3336	0.073242	-393.590441	-393.58431	-393.583365	-393.621062	21.51	
O	-0.8530641703	 1.1002209026	 0.2543504382	-0.231256
C	 0.2551731672	 0.8104313453	-0.118442405	 0.104445
C	 1.4113496759	 1.7593959488	-0.0620162604	 0.218107
C	 1.2809467916	 3.0611889015	 0.4323922463	-0.00148
N	 2.3171454103	 3.893713968	 0.4765445473	-0.166961
N	 3.4960621905	 3.4576831861	 0.0350952784	-0.165287
C	 3.576793246	 2.2091232249	-0.4283666323	 0.102644
N	 2.5841855843	 1.3176921869	-0.5040122047	-0.280525
H	 0.5178394815	-0.182705612	-0.5348178866	 0.110564
H	 0.3293283782	 3.433134388	 0.7958015543	 0.160667
H	 4.5573934948	 1.89899014	-0.7768016754	 0.149082
112.7706	197.651	207.4063	373.5114	457.6515	465.5522	646.3607	711.8916	812.0886	867.1167	945.7222	1006.2789	1029.0731	1048.7291	1072.863	1150.3146	1237.9298	1307.2772	1321.1123	1393.388	1472.7989	1561.4528	1591.4717	1816.8191	2946.18	3190.1591	3205.777
O=CC1=CN=NC=N1	O=Cc1cnncn1	
InChI=1S/C4H3N3O/c8-2-4-1-6-7-3-5-4/h1-3H	InChI=1S/C4H3N3O/c8-2-4-1-6-7-3-5-4/h1-3H
