11
gdb 5183	8.26878	1.27461	1.10841	3.5116	54.18	-0.2518	-0.031	0.2208	961.9458	0.07244	-434.580143	-434.573624	-434.57268	-434.611947	22.209	
O	 0.0917668424	-0.0232073347	 0.0636026448	-0.236401
C	-0.0038637059	 1.1539916872	-0.0412001985	 0.17213
O	 1.1053506672	 1.9645041805	 0.1491727809	-0.21909
C	 0.9193390891	 3.2934586831	 0.1061911829	 0.513152
N	-0.1724467241	 3.9756977161	 0.1951584464	-0.367944
C	 0.2707684069	 5.2956889314	 0.0887233559	-0.102507
C	 1.6131222447	 5.3088001348	-0.0479340957	-0.038499
O	 2.0481797631	 3.9988510077	-0.0408693073	-0.170816
H	-0.9018366515	 1.7359057577	-0.2864010874	 0.152079
H	-0.4169772799	 6.1246795621	 0.127469913	 0.138771
H	 2.3737016781	 6.0621232441	-0.147493625	 0.159124
47.8855	115.8613	184.1728	334.5517	450.7588	531.0326	622.8053	723.378	761.1527	843.7232	864.7876	929.5421	1003.8543	1041.4943	1061.4028	1098.3144	1146.1602	1184.2277	1283.7769	1396.9157	1422.2416	1573.1043	1625.4356	1890.2545	3074.4079	3272.1403	3313.9644
O=COC1=NC=CO1	O=COc1ncco1	
InChI=1S/C4H3NO3/c6-3-8-4-5-1-2-7-4/h1-3H	InChI=1S/C4H3NO3/c6-3-8-4-5-1-2-7-4/h1-3H
