11
gdb 11632	3.57925	1.93255	1.5322	4.5714	57.79	-0.2866	-0.0462	0.2404	791.0353	0.071175	-397.3414	-397.334973	-397.334029	-397.37217	23.364	
O	-0.0696351418	-0.0580340225	-0.0842973284	-0.273896
C	-0.0516786385	 1.113612224	 0.0369742216	 0.451148
C	-0.9302190664	 2.3913442339	 0.0475753452	-0.077069
C	-0.0185272148	 2.969207151	 1.1561191456	-0.255628
C	 0.9304535012	 2.3574675927	 0.0932752533	 0.181805
O	 0.037503303	 2.9058312457	-0.9596964313	-0.308233
C	 2.3509602207	 2.4781389513	-0.0491299956	 0.185571
N	 3.5025529558	 2.5350623786	-0.1314986798	-0.328936
H	-1.9873874048	 2.5469620447	-0.1446597999	 0.139909
H	 0.0060213624	 4.0593107636	 1.1583677684	 0.147315
H	-0.0401063669	 2.5248870372	 2.1530858109	 0.138015
131.9707	177.674	187.5032	363.7521	504.6112	520.8192	527.1443	602.3975	708.9803	785.3333	803.9893	817.2662	921.4864	942.4695	987.7368	1035.3716	1098.8994	1174.5555	1204.1672	1211.6544	1309.1522	1473.0193	1959.9337	2357.6406	3080.8574	3168.0053	3185.6264
O=C1C2CC1(O2)C#N	O=C1[C@H]2C[C@@]1(O2)C#N	
InChI=1S/C5H3NO2/c6-2-5-1-3(8-5)4(5)7/h3H,1H2	InChI=1S/C5H3NO2/c6-2-5-1-3(8-5)4(5)7/h3H,1H2/t3-,5-/m1/s1
