10
gdb 133402	2.35079	1.88313	1.04556	1.6108	54.19	-0.2739	-0.0869	0.187	970.8755	0.051764	-557.779473	-557.772638	-557.771694	-557.811144	24.642	
F	 0.0476442417	 0.0414935136	 0.0032174181	-0.002002
C	-0.0472578229	 1.3431975504	 0.0109855324	 0.308064
C	-1.2270882345	 2.0043761528	 0.0305114253	-0.062261
F	-2.369304367	 1.3377181957	 0.0431553338	-0.028747
C	-1.2157000333	 3.4509696484	 0.0371160647	 0.280774
O	-2.189820361	 4.178691986	 0.0555139112	-0.351677
C	 0.1769856586	 3.9693610735	 0.0213164316	-0.049028
N	 1.2756905754	 3.304658361	 0.002794265	-0.035422
O	 1.1569130697	 1.9105755729	-0.0028108858	-0.235194
H	 0.3084151232	 5.0481033556	 0.0253085839	 0.175492
113.3276	188.1227	264.0053	296.984	330.8644	479.023	508.9626	515.0625	578.5038	631.7477	669.171	743.2925	861.9189	928.7177	952.5416	1083.4241	1229.7077	1273.6615	1326.6955	1434.3628	1636.5355	1713.8132	1773.1126	3188.3268
FC1=C(F)C(=O)C=NO1	Fc1c(F)c(=O)cno1	
InChI=1S/C4HF2NO2/c5-3-2(8)1-7-9-4(3)6/h1H	InChI=1S/C4HF2NO2/c5-3-2(8)1-7-9-4(3)6/h1H
