11
gdb 23810	3.44086	2.33642	1.39154	1.4004	58.17	-0.2442	-0.0742	0.17	776.7836	0.073225	-434.832526	-434.826467	-434.825523	-434.862857	22.599	
F	 0.0279524038	 0.0461267118	 0.0038316262	-0.028447
C	 0.0075548422	 1.362200317	 0.0105272144	 0.229967
C	-1.1449334669	 2.0608924493	 0.029034286	-0.085069
N	-1.190204035	 3.4482268227	 0.0364099964	-0.203109
N	-0.1091751138	 4.1077241163	 0.0254767541	-0.032568
N	 1.0638943584	 3.4344745459	 0.0068257492	-0.30756
C	 1.2891999373	 2.0466534104	-0.0029075014	 0.32743
N	 2.4130761902	 1.4440914557	-0.0205713771	-0.540791
H	-2.1066581007	 1.5632288857	 0.0391972058	 0.149257
H	 1.8625757552	 4.0544679814	-0.0006012344	 0.276254
H	 3.1999177891	 2.0943716438	-0.0276965349	 0.214637
130.8481	249.8282	307.0332	417.3319	451.323	553.5498	595.6222	599.2469	689.607	758.6504	769.9645	815.0712	937.0633	946.9756	1047.0839	1092.0618	1159.2528	1255.8722	1304.4469	1377.0765	1455.0865	1546.2506	1657.6805	1734.1434	3217.3668	3472.2291	3601.2563
FC1=CN=NNC1=N	Fc1cnn[nH]c1[NH]	
InChI=1S/C3H3FN4/c4-2-1-6-8-7-3(2)5/h1H,(H2,5,6,7)	InChI=1S/C3H8FN4/c4-2-1-6-8-7-3(2)5/h2-3,5-8H,1H2
