10
gdb 23723	6.08199	1.52858	1.22156	2.2765	50.76	-0.2763	-0.0665	0.2098	832.2418	0.061003	-462.759068	-462.753481	-462.752537	-462.789048	20.654	
F	 0.0017085156	 0.02782096	 0.0038366219	-0.063917
C	-0.0163534109	 1.3579122502	 0.0107746534	 0.216295
C	-1.2157620634	 2.0551573809	 0.0299727549	-0.086985
N	-1.2361976759	 3.3882481414	 0.0369707824	-0.289243
C	-0.0519079757	 3.975561443	 0.0244184772	 0.361081
F	-0.0698028719	 5.2930608431	 0.0314640121	-0.052011
N	 1.1478912675	 3.4207923944	 0.0059710942	-0.289244
C	 1.1636719569	 2.0876349684	-0.000966041	-0.086987
H	-2.1669301512	 1.529852603	 0.0397654207	 0.145505
H	 2.128757239	 1.5884931557	-0.0160894459	 0.145505
141.3721	353.7362	401.55	442.023	493.5448	502.8588	542.774	655.0336	787.9701	818.0286	906.2057	963.3566	985.2001	1047.2689	1258.1308	1283.9118	1294.3898	1381.4696	1415.4428	1494.6755	1607.9301	1646.8858	3176.6464	3176.8339
FC1=CN=C(F)N=C1	Fc1cnc(F)nc1	
InChI=1S/C4H2F2N2/c5-3-1-7-4(6)8-2-3/h1-2H	InChI=1S/C4H2F2N2/c5-3-1-7-4(6)8-2-3/h1-2H
