10
gdb 129314	3.82687	1.30412	0.9755	2.4391	66.16	-0.3033	-0.1578	0.1455	1064.8265	0.052846	-463.723622	-463.716409	-463.715465	-463.756379	25.132	
N	-0.0127521781	 1.3076268182	-0.047880025	-0.480375
C	-0.0199252111	 0.0523928256	 0.0421559363	 0.455612
O	 1.1538375064	-0.6852561847	 0.1656861957	-0.256914
N	 1.150890431	-2.1035108166	-0.032653844	 0.088047
N	 0.0716553868	-2.6827690515	-0.1330826658	-0.129797
C	-1.1352461642	-1.9296578993	-0.0182069923	 0.272148
N	-1.2186889967	-0.6601613326	 0.0550504749	-0.2415
C	-2.3194881429	-2.7447994088	 0.001264936	 0.323489
N	-3.2618661349	-3.4131798127	 0.018833849	-0.284367
H	 0.9403363438	 1.6720506525	-0.0663689948	 0.253657
42.7295	132.9156	158.2556	312.3769	379.2252	451.2459	475.4767	550.4732	578.0257	690.0779	705.5141	742.2223	792.4844	875.176	894.6658	977.9813	1052.8345	1206.1253	1281.928	1603.6348	1676.2428	1746.0589	2365.9933	3505.1797
N=C1ON=NC(=N1)C#N	[NH]C1=NC(=N[N]O1)C#N	
InChI=1S/C3HN5O/c4-1-2-6-3(5)9-8-7-2/h5H	InChI=1S/C3HN5O/c4-1-2-6-3(5)9-8-7-2/h5H
