10
gdb 130790	3.87598	1.29952	0.97322	4.5167	66.63	-0.2908	-0.1429	0.1479	1070.2717	0.051436	-467.52974	-467.522354	-467.52141	-467.562711	25.882	
O	-0.0151436328	-0.0544096633	 0.0034457346	-0.299539
C	 0.0175681433	 1.1353920824	 0.0088702691	 0.470137
O	-1.191692461	 1.8326940016	 0.0293233772	-0.231114
N	-1.238543295	 3.2494563677	 0.0367680215	 0.084346
N	-0.179940063	 3.8815591416	 0.024802817	-0.139054
C	 1.0586836727	 3.1801865101	 0.0038215501	 0.203569
N	 1.1830934091	 1.9000244339	-0.0039322841	-0.318443
C	 2.1956947406	 4.0317461594	-0.0078009425	 0.289044
C	 3.1454696415	 4.7690228663	-0.0174897275	-0.291399
H	 3.9916688847	 5.4135675202	-0.0261513953	 0.232454
40.1906	120.8546	146.8202	291.677	404.5802	445.5126	474.244	536.4351	579.9295	680.0872	709.2191	713.2578	747.6276	753.4701	813.6162	891.7579	993.6917	1133.3032	1247.783	1581.2972	1654.2695	1884.6374	2241.8957	3491.471
O=C1ON=NC(=N1)C#C	O=c1onnc(n1)C#C	
InChI=1S/C4HN3O2/c1-2-3-5-4(8)9-7-6-3/h1H	InChI=1S/C4HN3O2/c1-2-3-5-4(8)9-7-6-3/h1H
