11
gdb 133468	3.59719	1.2281	1.09008	2.8221	49.57	-0.291	-0.0442	0.2468	1023.5001	0.062941	-583.038045	-583.031051	-583.030107	-583.070791	24.788	
F	-0.4165483837	 0.1266055778	-0.2906722915	-0.061084
C	-0.0317661058	 1.3642455617	 0.0360777644	 0.237967
F	 1.2986685138	 1.369695536	 0.1702779765	-0.066171
F	-0.3556783761	 2.1694673289	-0.980198447	-0.060902
C	-0.6648377652	 1.8158226957	 1.3168721933	 0.272006
C	-0.1320142876	 2.20057584	 2.5025300018	-0.330986
C	-1.2849273858	 2.4986392854	 3.279226823	 0.034968
N	-2.3958552802	 2.3069880141	 2.6116917704	-0.11793
O	-2.0028318094	 1.8691833273	 1.3527348821	-0.205486
H	 0.9066684932	 2.2610496261	 2.7772136981	 0.148774
H	-1.3407878832	 2.8459329171	 4.3009344388	 0.148846
40.371	140.2449	176.0289	369.3833	375.6434	407.067	544.3029	579.9008	647.5576	734.1843	749.5872	840.5632	922.9229	926.8413	943.4318	982.8966	1048.2468	1142.3883	1199.3226	1213.0669	1239.118	1314.4238	1377.86	1514.7245	1649.0491	3252.5931	3296.3046
FC(F)(F)C1=CC=NO1	FC(F)(F)c1ccno1	
InChI=1S/C4H2F3NO/c5-4(6,7)3-1-2-8-9-3/h1-2H	InChI=1S/C4H2F3NO/c5-4(6,7)3-1-2-8-9-3/h1-2H
