11
gdb 132082	2.38088	1.84262	1.03872	4.5062	57.8	-0.246	-0.0638	0.1822	990.3756	0.064304	-541.792032	-541.785168	-541.784224	-541.823617	25.354	
F	 0.0216171745	 0.0148139985	 0.0032735731	-0.039534
C	-0.0133684228	 1.3376934994	 0.010640095	 0.209187
C	-1.1994642547	 1.9956902171	 0.0302749693	-0.048029
F	-2.3546574499	 1.3486510393	 0.0426975431	-0.034856
C	-1.2669414058	 3.4453950175	 0.0387445057	 0.366138
O	-2.254918337	 4.1211048822	 0.055777882	-0.32924
O	-0.0112960594	 4.0780912248	 0.0248831185	-0.218613
C	 1.1475308531	 3.4020818184	 0.005524878	 0.101425
C	 1.2174933935	 2.057337454	-0.002435433	-0.309538
H	 2.0041874182	 4.0636475007	-0.0027377907	 0.159307
H	 2.1623319202	 1.533525708	-0.0180764208	 0.143753
120.2367	198.8885	274.0789	298.9497	337.2312	475.386	508.5122	510.8207	578.2287	656.8029	695.9444	745.3158	780.3027	850.7323	927.605	966.0047	1078.7116	1173.4209	1244.6238	1315.1176	1354.4477	1472.9723	1619.0043	1714.2594	1857.4018	3223.6934	3247.5946
FC1=C(F)C(=O)OC=C1	Fc1c(F)c(=O)occ1	
InChI=1S/C5H2F2O2/c6-3-1-2-9-5(8)4(3)7/h1-2H	InChI=1S/C5H2F2O2/c6-3-1-2-9-5(8)4(3)7/h1-2H
