10
gdb 133406	2.36343	1.86491	1.04239	3.7709	53.95	-0.281	-0.0955	0.1855	972.3201	0.051795	-557.793701	-557.786875	-557.785931	-557.825374	24.645	
F	 0.0275999981	 0.017507731	 0.0031999201	-0.029559
C	-0.0272611585	 1.3371712442	 0.0108541553	 0.156006
C	-1.1918231063	 2.0153413544	 0.0304671873	 0.004553
F	-2.3643644636	 1.422129259	 0.0434474812	-0.014241
C	-1.1853576112	 3.4758971341	 0.0381250414	 0.381335
O	-2.1509050204	 4.1814201336	 0.0545774387	-0.310989
O	 0.0817764003	 4.0592677334	 0.0234344737	-0.26098
N	 1.273183826	 3.362865855	 0.0033647279	-0.034182
C	 1.1997544199	 2.0761782503	-0.0022221012	-0.062541
H	 2.1477313458	 1.548511605	-0.0180620243	 0.170597
113.2306	182.5868	268.8032	302.2314	326.9853	467.5351	519.916	529.3243	574.227	656.6787	676.9341	749.059	867.8075	907.0879	951.462	1025.1907	1175.7877	1272.5483	1362.8061	1393.2662	1616.8204	1736.6915	1858.7153	3199.642
FC1=C(F)C(=O)ON=C1	Fc1c(F)c(=O)onc1	
InChI=1S/C4HF2NO2/c5-2-1-7-9-4(8)3(2)6/h1H	InChI=1S/C4HF2NO2/c5-2-1-7-9-4(8)3(2)6/h1H
