10
gdb 23797	4.18513	1.89398	1.3039	0.9918	54.51	-0.2693	-0.1097	0.1596	807.8146	0.05902	-454.691967	-454.68582	-454.684875	-454.722557	22.446	
F	 0.0277832708	 0.0692938716	 0.0222954672	-0.038086
C	-0.0712203974	 1.3792846945	 0.0423032536	 0.398761
C	-1.2221458496	 2.0397286052	-0.1083120054	-0.329176
C	-1.1797333382	 3.486922645	-0.0641183919	 0.449088
N	-2.1997586989	 4.2230493934	-0.1936060046	-0.518575
O	 0.0890107874	 4.0300936861	 0.1353160614	-0.282427
N	 1.2599288269	 3.2294671128	 0.2851646277	 0.075296
N	 1.1567993596	 2.0005508757	 0.237819711	-0.159245
H	-2.1730653225	 1.5482364642	-0.2600033643	 0.16511
H	-1.955699378	 5.2118899217	-0.1319989648	 0.239254
117.839	183.8541	343.6919	415.1208	442.707	518.2841	540.467	663.7973	732.6274	732.9965	787.5739	857.0656	904.4898	909.7745	980.2097	1084.7935	1239.3331	1294.6187	1351.3583	1602.8101	1706.2098	1758.5049	3242.5731	3495.9504
FC1=CC(=N)ON=N1	FC1=N[N]OC(=C1)[NH]	
InChI=1S/C3H2FN3O/c4-2-1-3(5)8-7-6-2/h1,5H	InChI=1S/C3H2FN3O/c4-2-1-3(5)8-7-6-2/h1,5H
