11
gdb 133546	2.27023	1.63268	1.23326	3.3068	48.75	-0.3271	-0.0229	0.3042	958.0008	0.060978	-583.027878	-583.020046	-583.019101	-583.061078	27.456	
F	-0.4223889219	 0.1693430576	-0.285894185	-0.063904
C	-0.0461348084	 1.4119222795	 0.0131857425	 0.253245
F	 1.2680018275	 1.4153316864	 0.2312139509	-0.056083
F	-0.3001624026	 2.200860544	-1.0346464869	-0.059678
C	-0.7980845969	 1.9215362142	 1.241133918	 0.106727
C	-2.0988485518	 1.3249833516	 1.6023882001	-0.201983
O	-0.9036849207	 0.9930129397	 2.3068373209	-0.237196
C	-0.4967180611	 3.2947549344	 1.5983724997	 0.253244
N	-0.2636618313	 4.3909583816	 1.875729365	-0.306153
H	-2.8131601153	 1.9355638632	 2.1485355634	 0.155569
H	-2.5017197075	 0.5404048378	 0.9683327914	 0.156212
49.607	135.0772	185.5899	248.4849	264.676	366.773	415.2267	443.821	540.5016	554.4441	596.3019	630.973	746.8489	883.5099	909.3807	976.9761	1121.0461	1131.7449	1182.173	1221.5916	1233.5878	1323.7676	1385.2445	1513.747	2371.4496	3115.107	3218.7947
FC(F)(F)C1(CO1)C#N	FC(F)(F)[C@]1(CO1)C#N	
InChI=1S/C4H2F3NO/c5-4(6,7)3(1-8)2-9-3/h2H2	InChI=1S/C4H2F3NO/c5-4(6,7)3(1-8)2-9-3/h2H2/t3-/m1/s1
