10
gdb 21477	8.64802	1.26383	1.1046	2.8377	52.04	-0.3004	-0.0862	0.2142	953.5751	0.059687	-446.703838	-446.697327	-446.696383	-446.735896	21.722	
N	-0.1783640935	 1.2932722243	 0.1380451903	-0.400805
C	-0.020582655	 0.0618552837	-0.0175525987	 0.120463
O	-1.1525040239	-0.7348983107	 0.0477907472	-0.197634
C	-0.9978674048	-2.0540325268	 0.0242276964	 0.545249
N	 0.1103850626	-2.7332617422	 0.1205228899	-0.187996
O	-0.3081349826	-4.0271344191	 0.0427872778	-0.144427
N	-1.6870731712	-4.0505399805	-0.0902784016	 0.069936
N	-2.1058968196	-2.8649798649	-0.1031175144	-0.218703
H	 0.7113624786	 1.7806746285	 0.0495180864	 0.254153
H	 0.8908869495	-0.5047393022	-0.2142851434	 0.159765
42.7453	88.1155	186.0664	355.8089	458.0458	506.1271	655.3585	745.4268	771.3893	822.7309	842.6592	946.6238	1020.0568	1049.1316	1064.0025	1122.2264	1236.1642	1335.6047	1406.4418	1512.3429	1617.4051	1763.0761	3125.6756	3526.3085
N=COC1=NON=N1	[NH][CH]Oc1nonn1	
InChI=1S/C2H2N4O2/c3-1-7-2-4-6-8-5-2/h1,3H	InChI=1S/C2H2N4O2/c3-1-7-2-4-6-8-5-2/h1,3H
