11
gdb 9159	8.89944	0.80513	0.74179	4.3662	68.18	-0.3021	-0.0963	0.2058	1396.0824	0.070846	-397.40396	-397.395895	-397.394951	-397.437314	26.29	
C	-0.0440114255	 1.365820529	 0.0656731359	-0.247385
O	 0.0194191997	-0.0697955486	-0.0184206178	-0.211358
C	 0.6314509869	-0.5466767185	-1.1068972676	 0.243999
O	 1.1166001176	 0.1109715856	-1.9911504453	-0.334939
C	 0.6421990018	-1.9986510509	-1.0961413537	-0.06205
C	 0.6963288452	-3.2027982651	-1.1683730754	 0.268647
C	 0.7488891958	-4.5653148108	-1.2345048432	 0.20242
N	 0.7925710185	-5.7244759139	-1.2889041569	-0.31731
H	 0.9625340488	 1.7899392666	 0.0790639252	 0.154381
H	-0.5919656788	 1.7720241233	-0.7875154034	 0.154387
H	-0.56586803	 1.5783120632	 0.9974185521	 0.149207
77.2978	83.857	128.0689	182.8784	224.025	306.7636	336.9962	424.6264	537.6397	587.5662	594.5086	771.6832	815.5392	963.8915	1101.4774	1175.8634	1214.9472	1288.7252	1472.8333	1482.2047	1492.7181	1798.0884	2265.4471	2397.3025	3059.3407	3138.3653	3175.1783
COC(=O)C#CC#N	COC(=O)C#CC#N	
InChI=1S/C5H3NO2/c1-8-5(7)3-2-4-6/h1H3	InChI=1S/C5H3NO2/c1-8-5(7)3-2-4-6/h1H3
