11
gdb 130859	7.55097	0.88499	0.79215	3.6801	68.06	-0.2971	-0.1113	0.1858	1286.5095	0.065706	-451.548634	-451.541403	-451.540458	-451.580939	25.099	
O	 0.0135711161	-0.0425724253	-0.001157632	-0.233431
C	 0.0013567281	 1.1608513998	 0.0085693454	 0.081741
C	 1.2126155823	 2.0024097333	 0.002462448	 0.350232
C	 1.367462202	 3.3569664588	 0.011669692	-0.395219
C	 2.7785914231	 3.5220111206	-0.0020833836	 0.291887
N	 3.4051108844	 2.3557633844	-0.0178313416	-0.153388
O	 2.4236410658	 1.4074637993	-0.0150798118	-0.17009
C	 3.5146749023	 4.7416416587	-0.0001675812	 0.260028
N	 4.0719496281	 5.7541598831	 0.0020095269	-0.307784
H	-0.9366211484	 1.7525997939	 0.0231982038	 0.108465
H	 0.6083735763	 4.1207667734	 0.0258200641	 0.167559
83.3027	130.7877	187.7855	220.8433	285.9968	433.6858	509.1647	561.8224	623.8267	659.9335	716.1677	767.6647	856.6114	992.1227	1016.802	1020.7346	1050.237	1138.6001	1292.5689	1402.7164	1421.3879	1466.542	1604.3731	1810.5578	2370.1865	2928.3299	3289.0599
O=CC1=CC(=NO1)C#N	O=Cc1cc(no1)C#N	
InChI=1S/C5H2N2O2/c6-2-4-1-5(3-8)9-7-4/h1,3H	InChI=1S/C5H2N2O2/c6-2-4-1-5(3-8)9-7-4/h1,3H
