11
gdb 21439	3.3255	2.52424	1.435	4.05	56.84	-0.2612	-0.0634	0.1978	768.1838	0.07308	-430.71249	-430.706125	-430.705181	-430.743483	23.082	
N	-0.0262533062	 1.2429217247	 0.3690013837	-0.459412
C	-0.0314280829	 0.0452299671	-0.0224944078	 0.306184
O	 1.1269048891	-0.5735104966	-0.4503033016	-0.289508
N	 1.1797603156	-1.9080040199	-0.8978881744	-0.101681
C	 0.0707759415	-2.5419320319	-0.8900955976	 0.136928
N	-1.1456346728	-2.0436178327	-0.4904628532	-0.36433
C	-1.3175375986	-0.7467758044	-0.0322539963	 0.391609
O	-2.3862412017	-0.3195539085	 0.3156887434	-0.306704
H	 0.916482927	 1.6356978276	 0.3145634817	 0.243434
H	 0.0986168013	-3.570096538	-1.2323519519	 0.165348
H	-1.9735578122	-2.6226347675	-0.5192412859	 0.278131
77.1124	138.5375	348.6498	415.5479	492.6581	532.002	545.3985	556.3953	643.3883	716.1572	796.6311	904.6368	908.7532	911.6426	974.143	1026.1162	1116.7302	1204.4561	1335.3116	1368.1802	1472.2114	1714.8672	1746.2695	1843.5077	3211.2826	3470.2814	3607.4645
N=C1ON=CNC1=O	[NH][C]1ON=CNC1=O	
InChI=1S/C3H3N3O2/c4-2-3(7)5-1-6-8-2/h1,4H,(H,5,6,7)	InChI=1S/C3H3N3O2/c4-2-3(7)5-1-6-8-2/h1,4H,(H,5,6,7)
