10
gdb 21437	3.97168	2.14985	1.39483	2.4557	52.98	-0.2958	-0.1052	0.1906	777.1718	0.059858	-450.584081	-450.577812	-450.576867	-450.615389	22.105	
N	-0.0291154719	 1.2773081148	 0.4073198603	-0.506773
C	-0.0072100935	 0.1369056214	-0.1018043458	 0.518672
O	 1.1650787735	-0.5720046064	-0.2863246749	-0.269815
N	 1.2025135795	-1.8388953782	-0.8506159851	-0.01401
C	 0.0868985343	-2.3472791435	-1.2052351783	-0.089595
C	-1.2248065836	-1.6932374784	-1.060351346	 0.433735
O	-2.270079008	-2.1642001442	-1.3894829249	-0.290032
O	-1.174457856	-0.4448539754	-0.4944061511	-0.218424
H	 0.9079705741	 1.5885806061	 0.6532342301	 0.255168
H	 0.1195996615	-3.3369025562	-1.6455431944	 0.181073
55.5368	119.4767	372.0459	377.4378	497.5883	545.7134	559.6422	694.3121	723.5797	748.6715	829.7769	907.8301	917.3881	926.2494	982.6757	1072.375	1211.6258	1310.3203	1319.7803	1672.76	1788.0792	1880.7781	3219.3238	3541.7738
N=C1ON=CC(=O)O1	[NH][C]1ON=CC(=O)O1	
InChI=1S/C3H2N2O3/c4-3-7-2(6)1-5-8-3/h1,4H	InChI=1S/C3H2N2O3/c4-3-7-2(6)1-5-8-3/h1,4H
