11
gdb 131983	4.79862	1.15223	0.92941	6.5665	56.81	-0.2765	-0.0961	0.1804	1121.4339	0.065607	-521.910118	-521.902755	-521.901811	-521.94306	25.927	
N	-0.0168282919	 1.3058630751	 0.1206212841	-0.596035
C	-0.064168077	-0.035689672	 0.045530903	 0.550782
N	-1.1227651618	-0.8068002043	 0.0387566724	-0.365644
C	-0.5319658655	-2.0250599067	 0.0008184558	 0.47287
N	 0.7706046495	-2.0770193493	-0.01990903	-0.151804
O	 1.1011264783	-0.7077286016	 0.0104297285	-0.199283
N	-1.3146499639	-3.2696724954	-0.0218554176	 0.35771
O	-2.5262328674	-3.1455580263	-0.0176662473	-0.324248
O	-0.6824981327	-4.3117999509	-0.0435859089	-0.330547
H	 0.8465542501	 1.7718572899	-0.1029860958	 0.290172
H	-0.8765273277	 1.8037942214	-0.0397580344	 0.296028
31.8119	166.5075	202.3991	327.3761	345.1083	380.9423	413.9144	431.1002	558.201	628.7848	755.1955	766.0157	813.9369	848.5831	927.6072	998.3261	1040.0184	1109.1988	1351.3282	1390.8534	1418.1995	1568.6977	1602.4821	1668.1823	1702.329	3614.7131	3736.3046
NC1=NC(=NO1)N(=O)=O	Nc1nc(no1)N(=O)=O	
InChI=1S/C2H2N4O3/c3-1-4-2(5-9-1)6(7)8/h(H2,3,4,5)	InChI=1S/C2H2N4O3/c3-1-4-2(5-9-1)6(7)8/h(H2,3,4,5)
