10
gdb 130579	3.8393	1.33967	0.99313	2.9476	60.03	-0.3286	-0.1347	0.1938	1039.6996	0.05439	-463.769844	-463.762855	-463.76191	-463.802154	23.729	
O	 0.0477820144	-0.0585731034	 0.0034131413	-0.263054
C	-0.006565435	 1.138640715	 0.0073081514	 0.387697
C	 1.1716871923	 2.0014187283	 0.0011588185	 0.275704
N	 2.157428303	 2.6030926859	-0.0043326527	-0.289324
N	-1.2306131222	 1.8341423628	 0.0183036692	-0.069269
C	-2.4999605358	 1.3379314797	 0.0261494182	 0.105164
N	-3.3382071712	 2.3338944081	 0.0352300066	-0.210756
N	-2.563783949	 3.4779156067	 0.0329106635	-0.056704
N	-1.3198521033	 3.2014895173	 0.0229220225	-0.087963
H	-2.7285073632	 0.2854182896	 0.0247450514	 0.208506
76.2939	132.5742	156.9172	252.956	309.9359	464.3488	500.0002	645.4139	680.3844	717.3918	767.3653	899.9421	933.3309	978.443	1048.9928	1080.7023	1187.1986	1223.1519	1379.9532	1434.7329	1521.3541	1819.9316	2360.285	3302.7043
O=C(C#N)N1C=NN=N1	O=C(C#N)n1cnnn1	
InChI=1S/C3HN5O/c4-1-3(9)8-2-5-6-7-8/h2H	InChI=1S/C3HN5O/c4-1-3(9)8-2-5-6-7-8/h2H
