10
gdb 133420	3.31961	1.43059	0.99975	1.3103	53.89	-0.2884	-0.0792	0.2093	1003.8888	0.052999	-553.963596	-553.956954	-553.95601	-553.995241	24.089	
F	 0.0171093034	 0.0869898077	 0.0031516068	-0.021259
C	-0.0849042529	 1.385734112	 0.0116918531	 0.445609
N	-1.2122355087	 1.9587516766	 0.0301900424	-0.410633
C	-1.2000580877	 3.3588817771	 0.0377227656	 0.25601
N	-2.2157535715	 4.1188153531	 0.0557714802	-0.492766
C	 0.1555533099	 3.946166738	 0.0224906886	 0.349706
F	 0.2489940539	 5.24934311	 0.0284509518	-0.003996
N	 1.2652779801	 3.3130023915	 0.003905751	-0.136567
O	 1.145003016	 1.906737656	-0.0021862872	-0.231541
H	-3.0666898026	 3.5517395279	 0.0642551078	 0.245437
84.6236	192.0657	324.5843	352.0524	384.6471	434.2326	484.2695	530.2308	622.6072	730.7875	733.274	788.3763	804.2051	937.3549	989.1705	1004.7944	1153.5001	1295.9064	1353.751	1456.0193	1677.2964	1717.4135	1744.0041	3468.7333
FC1=NC(=N)C(F)=NO1	FC1=N[C]([NH])C(=NO1)F	
InChI=1S/C3HF2N3O/c4-1-2(6)7-3(5)9-8-1/h6H	InChI=1S/C3HF2N3O/c4-1-2(6)7-3(5)9-8-1/h6H
