11
gdb 23788	3.99207	2.00586	1.33521	5.9256	56.02	-0.2426	-0.058	0.1846	807.3694	0.073035	-434.891029	-434.884628	-434.883684	-434.921642	23.405	
N	-0.0502463181	 1.3547057651	-0.0532796988	-0.568401
C	-0.0114331644	 0.0044923805	-0.0210843659	 0.410901
N	-1.1672625808	-0.6592626338	-0.0105407386	-0.36324
C	-1.0350364	-1.9743869416	-0.0025572089	 0.380523
F	-2.1646107294	-2.6510734891	 0.0060573349	-0.050785
N	 0.0597502686	-2.7139242266	 0.000897195	-0.274905
N	 1.2180601774	-2.0388180765	-0.0059040858	-0.160459
C	 1.206045937	-0.7240864689	-0.0177380557	-0.043029
H	 0.7845094813	 1.9001422641	 0.0650497264	 0.274356
H	-0.9434461452	 1.8092100832	 0.0409885872	 0.277196
H	 2.1711316937	-0.2266609564	-0.0247393998	 0.117843
173.7479	185.6034	223.0543	335.6834	468.2233	510.4593	526.7928	570.5195	600.4113	728.6164	776.8116	814.4004	896.7038	1000.4832	1018.3291	1109.5542	1158.2974	1253.9883	1403.1555	1432.6598	1510.2955	1572.8432	1598.5094	1653.2754	3175.3437	3613.9468	3746.739
NC1=NC(F)=NN=C1	Nc1nc(F)nnc1	
InChI=1S/C3H3FN4/c4-3-7-2(5)1-6-8-3/h1H,(H2,5,7,8)	InChI=1S/C3H3FN4/c4-3-7-2(5)1-6-8-3/h1H,(H2,5,7,8)
