11
gdb 21534	2.44947	2.24668	1.1719	3.8542	66.79	-0.2276	-0.0706	0.1571	917.7645	0.069302	-393.555771	-393.547325	-393.546381	-393.588958	28.848	
N	-0.1404492453	 1.462782642	-0.0308509255	-0.571972
C	 0.2725884504	 0.1665680388	-0.0140208889	 0.38918
C	-0.8488011984	-0.8191463777	-0.0030672129	-0.038377
N	-0.460959927	-2.0786303377	-0.0022856761	 0.206001
N	-0.0854369081	-3.1419773705	-0.0014776842	-0.188538
O	 1.4372448731	-0.1838006806	-0.0180220733	-0.384734
C	-2.2258787817	-0.5290079237	 0.0072034102	 0.261337
C	-3.3934165802	-0.2241473205	 0.0178323583	-0.41381
H	 0.5633225087	 2.1786559271	 0.0289343399	 0.26895
H	-1.1118167824	 1.7090008609	 0.0514437428	 0.267803
H	-4.423849929	 0.032962282	 0.0218725196	 0.20416
81.4325	125.3651	134.0445	152.0936	180.0597	364.8446	424.4861	453.7885	487.4051	519.5221	528.9271	562.6677	619.8427	698.7975	717.9216	755.0103	1083.941	1168.1718	1321.8296	1356.7397	1607.4457	1784.4073	2199.3625	2240.7749	3498.5193	3607.7958	3744.7368
NC1=C(N=NO1)C#C	NC(=O)[C]([N][N])C#C	
InChI=1S/C4H3N3O/c1-2-3-4(5)8-7-6-3/h1H,5H2	InChI=1S/C4H3N3O/c1-2-3(7-6)4(5)8/h1H,(H2,5,8)
