10
gdb 133436	3.1699	1.5173	1.02613	1.384	53.28	-0.2883	-0.0942	0.194	996.3825	0.052118	-549.822325	-549.815316	-549.814372	-549.854877	24.782	
F	 0.0049822921	 0.0851346485	-0.2398019594	-0.019611
C	-0.10199439	 1.3699693786	-0.05720134	 0.446768
N	-1.212737936	 1.845234587	 0.3220795488	-0.213292
O	-1.2403746642	 3.2444799358	 0.4948877125	-0.266449
C	-0.1396532605	 4.0269182261	 0.2668014372	 0.299655
N	-0.1602075758	 5.2769143763	 0.4200486266	-0.453488
C	 1.1380885962	 3.3686393247	-0.1825793751	 0.398938
O	 2.1616975254	 3.9119375919	-0.4169660926	-0.23949
O	 1.0600191741	 1.9818750159	-0.3233653735	-0.207934
H	-1.0825772514	 5.5953130451	 0.7259994555	 0.254903
51.2405	95.4722	312.957	352.0305	371.8273	428.9385	470.4311	510.319	609.7744	673.759	693.0501	782.5133	807.8528	914.839	958.4524	1007.4157	1087.2728	1136.1551	1321.1817	1394.2007	1732.7528	1766.0245	1922.8626	3475.821
FC1=NOC(=N)C(=O)O1	FC1=NO[C]([NH])C(=O)O1	
InChI=1S/C3HFN2O3/c4-3-6-9-1(5)2(7)8-3/h5H	InChI=1S/C3HFN2O3/c4-3-6-9-1(5)2(7)8-3/h5H
