11
gdb 130747	2.17443	1.93001	1.02915	1.3979	65.52	-0.2751	-0.098	0.1771	1020.691	0.06563	-488.71958	-488.712337	-488.711393	-488.751908	25.354	
O	 0.3096728914	 0.1209310529	-0.0068526377	-0.345899
C	 0.1962568249	 1.3102835193	 0.0039293288	 0.425361
O	-1.0113272401	 1.9525822077	 0.0251471893	-0.224691
C	-0.8720223321	 3.3748167592	 0.0351636441	-0.187192
C	 0.6315760845	 3.6893587999	 0.0172886877	 0.306373
C	 1.2283725228	 2.3596416536	-0.0020395973	 0.043494
N	 2.5091181368	 2.1073937385	-0.0214437482	 0.145173
N	 3.618198681	 1.9218182032	-0.0423167162	-0.162711
O	 1.1354599623	 4.7833573079	 0.0198902461	-0.32176
H	-1.3620687138	 3.7992951277	-0.8462946391	 0.160926
H	-1.3375206877	 3.7843459299	 0.9368200524	 0.160925
105.2781	125.943	183.5858	194.5978	344.786	456.8822	535.3918	535.9138	596.376	620.4631	663.5881	722.7036	740.3287	999.365	1023.9924	1075.5954	1111.4831	1192.3205	1204.117	1346.2108	1414.6339	1482.4553	1824.2495	1882.1495	2259.1989	3058.1192	3108.5466
O=C1OCC2=C1N=NO2	O=C1OCC(=O)[C]1[N][N]	
InChI=1S/C4H2N2O3/c7-4-3-2(1-8-4)9-6-5-3/h1H2	InChI=1S/C4H2N2O3/c5-6-3-2(7)1-9-4(3)8/h1H2
