11
gdb 130735	2.63783	1.88177	1.26	3.2642	61.59	-0.2798	-0.1175	0.1623	908.7223	0.06593	-484.83838	-484.83138	-484.830436	-484.870238	25.025	
O	-0.0115664925	 0.0609616913	-0.7091970734	-0.290571
C	 0.0480287058	 1.1730981776	-0.2732610281	 0.357832
N	-1.1381937106	 1.9217135583	-0.0374778002	-0.261498
N	-1.3763553866	 3.0719274519	 0.6692937076	-0.042766
N	-0.598415892	 4.0545855953	 0.6103246153	-0.139227
C	 0.56894569	 4.0676442783	-0.1753551383	 0.094355
N	 1.4582167471	 3.1698595643	-0.3223810489	-0.206458
C	 1.3310113346	 1.8872959597	 0.1916446138	 0.301561
O	 2.1417560415	 1.3183157213	 0.8675907277	-0.269017
H	-1.9632270034	 1.3308726113	-0.0229754545	 0.290839
H	 0.7243550961	 5.0429527406	-0.6352067109	 0.16495
89.7314	132.2903	279.7117	287.4764	332.0794	378.5449	485.6279	602.9449	619.5163	681.4669	712.4168	804.2456	847.2774	902.7744	942.6818	997.1781	1058.7027	1093.6373	1217.7229	1392.8771	1427.7243	1572.3832	1691.755	1830.2459	1846.4728	3152.466	3559.7543
O=C1NN=NC=NC1=O	O=c1[nH]nncnc1=O	
InChI=1S/C3H2N4O2/c8-2-3(9)6-7-5-1-4-2/h1H,(H,4,5,6,8,9)	InChI=1S/C3H2N4O2/c8-2-3(9)6-7-5-1-4-2/h1H,(H,4,5,6,8,9)
