11
gdb 21129	5.00219	1.76193	1.3793	2.3244	60.32	-0.2686	-0.1102	0.1584	830.8441	0.068853	-426.762074	-426.755018	-426.754074	-426.793496	24.683	
C	-0.0008546122	 1.4262633953	 0.1637854044	-0.34255
N	-0.0257577205	-0.0203837825	 0.0712130048	-0.2282
C	-1.081026966	-0.6155066719	-0.2772704898	 0.458725
N	-2.2916674832	-0.0150635959	-0.6891952225	-0.155256
N	-3.3580511927	-0.603507052	-0.4558276686	 0.075614
O	-3.2851946654	-1.83669414	 0.2009829729	-0.242493
N	-2.0916818578	-2.6514071719	-0.116209635	 0.069866
N	-1.065355268	-2.0368022428	-0.3528914784	-0.094535
H	 0.8864478332	 1.7796997897	-0.371085762	 0.153952
H	-0.8942633277	 1.9262666345	-0.2221843062	 0.149461
H	 0.1401661405	 1.6983715174	 1.2160540605	 0.155416
104.7423	137.9832	218.5581	250.5004	342.9594	411.9001	450.6712	529.6597	588.2423	699.8417	755.2904	776.4665	804.5391	1026.2291	1081.4575	1114.6175	1132.2614	1202.3741	1427.4547	1481.3551	1489.8033	1537.1114	1670.6002	1752.7129	3028.68	3092.9105	3114.0434
CN=C1N=NON=N1	C[N]C1=N[N]ON=N1	
InChI=1S/C2H3N5O/c1-3-2-4-6-8-7-5-2/h1H3	InChI=1S/C2H3N5O/c1-3-2-4-6-8-7-5-2/h1H3
