11
gdb 131337	3.72091	1.73986	1.18552	4.8143	57.	-0.2453	-0.0463	0.199	902.5151	0.067829	-484.825785	-484.819661	-484.818717	-484.856326	23.274	
O	 0.1006180145	 1.35702803	 0.0815436937	-0.417051
C	 0.0774931522	 0.0237063622	 0.019046215	 0.456178
N	 0.0799344425	-0.743540592	-1.0306089822	-0.32054
N	 0.0491528733	-2.0953144754	-0.6160497055	-0.353414
C	 0.0303111037	-2.0251806663	 0.6733745232	 0.54471
O	-0.0014893721	-2.88064829	 1.7145410486	-0.247966
N	-0.0060109192	-2.0972594812	 2.9001403881	-0.107796
C	 0.0222886782	-0.8568061348	 2.5335028642	 0.051226
N	 0.0459473197	-0.7385160839	 1.1648044028	-0.132477
H	 0.1207010675	 1.681709023	-0.829282423	 0.329181
H	 0.0261900498	-0.0357442216	 3.232143025	 0.197948
190.6293	224.4585	292.3977	378.7254	430.5414	573.8692	590.9625	662.3974	665.693	712.9747	743.7722	827.4407	860.957	876.6048	970.9737	1023.9854	1129.5103	1204.6679	1222.9878	1347.5224	1400.7367	1497.1339	1577.7492	1630.5908	1663.4586	3285.9536	3786.965
OC1=NN=C2ON=CN12	Oc1nnc2oncn12	
InChI=1S/C3H2N4O2/c8-2-5-6-3-7(2)1-4-9-3/h1H,(H,5,8)	InChI=1S/C3H2N4O2/c8-2-5-6-3-7(2)1-4-9-3/h1H,(H,5,8)
