10
gdb 21397	5.84856	2.45084	1.7271	3.0172	52.99	-0.2741	-0.0506	0.2235	649.6559	0.064656	-405.781165	-405.776232	-405.775287	-405.810142	18.544	
N	 0.002857387	 1.326229854	 0.0095510333	-0.367842
N	 1.311714025	 1.7281643812	-0.0005860864	-0.060315
N	 2.0749554059	 0.6961921359	-0.01400811	-0.114867
N	 1.2538330102	-0.3788618525	-0.0121062346	 0.124466
N	 1.388158353	-1.7240306232	-0.0215800547	-0.261875
C	 0.1007871184	-2.0805244021	-0.0108779864	 0.049342
N	-0.8428035392	-1.0823940633	 0.0044050585	-0.383505
C	-0.0544759048	-0.025396669	 0.0028756047	 0.560782
H	-0.7277535933	 2.0170974843	 0.0222676209	 0.309025
H	-0.1765356822	-3.1244974554	-0.0143259952	 0.144789
242.6035	350.1553	459.1252	497.8378	655.4182	688.5509	737.4502	764.8486	803.5797	918.7539	969.34	1016.9566	1035.0369	1185.3398	1224.8937	1260.1612	1317.9765	1334.382	1403.0356	1451.4052	1458.8139	1651.7956	3262.554	3690.89
N1N=NN2N=CN=C12	[nH]1nnn2ncnc12	
InChI=1S/C2H2N6/c1-3-2-5-6-7-8(2)4-1/h1H,(H,3,4,5,7)	InChI=1S/C2H2N6/c1-3-2-5-6-7-8(2)4-1/h1H,(H,3,4,5,7)
