11
gdb 21499	5.26732	1.61721	1.23732	1.2406	53.76	-0.2699	-0.0578	0.2121	867.2124	0.072345	-430.729561	-430.722767	-430.721823	-430.760861	24.07	
N	-0.0830816352	 1.3200420809	 0.0084821947	-0.540554
C	 0.0552076156	-0.0307874498	 0.0024689838	 0.333878
O	 1.1210312691	-0.6189593789	-0.0085662044	-0.363664
C	-1.2277360153	-0.7737967925	 0.0109376781	 0.175125
C	-1.4284713472	-2.1210485887	 0.0081500954	-0.005994
O	-2.7272003345	-2.3646846735	 0.0183760926	-0.159934
N	-3.380411128	-1.0749450908	 0.0283360264	-0.000564
N	-2.481400089	-0.2020300561	 0.0233462796	-0.189701
H	 0.7464219307	 1.8890554971	 0.0028719045	 0.27044
H	-0.9910807508	 1.7534392227	 0.0171183745	 0.280492
H	-0.7475521756	-2.9558032805	-0.000397755	 0.200476
91.4007	182.1571	200.9229	245.8221	396.6532	503.0323	570.5087	574.1446	630.1221	668.5103	701.479	788.8834	903.3044	979.3503	1029.4161	1091.7218	1147.1414	1218.224	1329.2641	1377.8405	1477.5142	1592.9505	1622.7271	1792.0743	3295.4092	3603.2744	3741.9051
NC(=O)C1=CON=N1	NC(=O)c1conn1	
InChI=1S/C3H3N3O2/c4-3(7)2-1-8-6-5-2/h1H,(H2,4,7)	InChI=1S/C3H3N3O2/c4-3(7)2-1-8-6-5-2/h1H,(H2,4,7)
