11
gdb 130562	3.67921	1.28409	0.95187	4.5079	66.35	-0.3054	-0.1253	0.18	1097.7434	0.066001	-451.548305	-451.541132	-451.540188	-451.580817	24.867	
O	 0.0531056815	-0.0609943687	 0.0032823427	-0.269464
C	-0.0432757659	 1.1444661446	 0.0075131073	 0.203441
C	 1.1551536401	 2.0017087624	 0.0013080991	 0.258653
N	 2.1192537351	 2.6388377635	-0.0038404439	-0.301274
C	-1.3341515771	 1.8389844944	 0.0189807241	 0.359822
C	-2.6105616164	 1.3546316462	 0.0268558462	-0.304542
C	-3.397840455	 2.5298992471	 0.0360975525	 0.032778
N	-2.6582956989	 3.618364578	 0.033877972	-0.101475
O	-1.3507510237	 3.1866267318	 0.0230647663	-0.200104
H	-2.9192639048	 0.3233139133	 0.0260611779	 0.163808
H	-4.4736673351	 2.6280715672	 0.0442503958	 0.158358
70.5795	116.6887	178.839	240.9375	305.3582	450.4185	483.5394	626.4199	647.5842	669.8015	787.8647	860.1969	933.9837	934.0537	950.3378	962.9106	1041.2121	1085.0568	1226.489	1275.4865	1370.6495	1478.5515	1614.4025	1759.3761	2347.9473	3256.5962	3295.9021
O=C(C#N)C1=CC=NO1	O=C(C#N)c1ccno1	
InChI=1S/C5H2N2O2/c6-3-4(8)5-1-2-7-9-5/h1-2H	InChI=1S/C5H2N2O2/c6-3-4(8)5-1-2-7-9-5/h1-2H
