10
gdb 9030	4.85788	0.92758	0.80237	2.6824	65.23	-0.3179	-0.0806	0.2372	1273.4206	0.059463	-376.296053	-376.288243	-376.287299	-376.328967	26.221	
O	-0.0574983205	 1.4419880171	 0.0060385465	-0.371263
C	 0.0407110577	 0.035890116	 0.0038984344	-0.203164
C	 0.6799211927	-0.4756250772	-1.2319360379	 0.284692
N	 1.1811444581	-0.8447749106	-2.2043268058	-0.297559
C	 0.7346625032	-0.4938925079	 1.1852012669	 0.152579
C	 1.3014524476	-0.8933806926	 2.1721860574	 0.025265
C	 1.9437461081	-1.3469085838	 3.2896539599	 0.225788
N	 2.4890589525	-1.7304649073	 4.2399968832	-0.316591
H	 0.8333948416	 1.8139779966	-0.0016008139	 0.310258
H	-0.9947699208	-0.3277786604	 0.0150683993	 0.189997
72.2455	104.3447	181.9389	230.9612	255.2102	325.0418	387.7303	470.5833	519.9132	575.155	582.2989	618.7516	774.6632	914.1071	1059.7939	1160.839	1264.9006	1307.3877	1411.2681	2272.0064	2365.0259	2408.6719	3045.4909	3793.1196
OC(C#N)C#CC#N	O[C@@H](C#N)C#CC#N	
InChI=1S/C5H2N2O/c6-3-1-2-5(8)4-7/h5,8H	InChI=1S/C5H2N2O/c6-3-1-2-5(8)4-7/h5,8H/t5-/m1/s1
