11
gdb 19340	5.44231	1.70947	1.53499	3.954	55.64	-0.2821	-0.0264	0.2557	775.4534	0.070907	-397.300813	-397.294823	-397.293879	-397.330946	22.625	
N	 0.0366092643	-1.1482526422	-0.1245232578	-0.329302
C	 0.0632223289	 0.006009157	-0.0518502857	 0.196775
C	 0.0619636497	 1.4210065446	 0.1046625002	 0.325473
O	 0.2159834551	 2.2809942459	-1.0233680303	-0.234144
C	 1.144653874	 2.4191314478	 0.0400324579	-0.098188
C	 0.4572439309	 3.2391462239	 1.2042780741	-0.006403
O	-0.8678397827	 3.5587959577	 0.7838520661	-0.194117
C	-0.6205902658	 2.2567230613	 1.2784058496	-0.078404
H	 2.2002329304	 2.292669494	-0.1640327032	 0.145223
H	 0.9344295817	 3.8508605092	 1.9578170847	 0.134167
H	-1.2099162966	 1.8635409607	 2.0961091941	 0.13892
159.0571	161.3385	404.8677	418.4027	481.293	538.1079	588.7778	698.0529	770.8294	807.8698	818.8999	855.6843	897.7516	939.7885	994.848	1000.6222	1032.2407	1106.7661	1197.3464	1212.6297	1254.0001	1368.291	1417.5223	2354.238	3207.6499	3212.5676	3225.1425
N#CC12OC1C1OC21	N#C[C@]12O[C@H]1[C@H]1O[C@@H]21	
InChI=1S/C5H3NO2/c6-1-5-3-2(7-3)4(5)8-5/h2-4H	InChI=1S/C5H3NO2/c6-1-5-3-2(7-3)4(5)8-5/h2-4H/t2-,3+,4-,5+/m0/s1
