10
gdb 21874	4.07962	2.05789	1.36789	3.9905	51.6	-0.2688	-0.0814	0.1873	785.6154	0.060624	-450.597637	-450.591532	-450.590588	-450.628242	22.099	
O	-0.0097410707	 1.3203137585	 0.0076381123	-0.36387
C	-0.0523480779	-0.0037533935	 0.0007929244	 0.540198
N	-1.1724864942	-0.6197362201	 0.0041719893	-0.373833
C	-1.1210855885	-2.0085530566	-0.0027479036	 0.378565
O	-2.0949325316	-2.7236281665	-0.0018650722	-0.32458
C	 0.2540188089	-2.5882071791	-0.0138888373	-0.039435
N	 1.3490884953	-1.9315121942	-0.0166885637	-0.04484
O	 1.1946937002	-0.5243566651	-0.0086248211	-0.271732
H	 0.9146826419	 1.608448262	 0.0040593268	 0.327157
H	 0.3646518065	-3.6686878655	-0.0202850048	 0.17237
95.6246	195.7463	380.9585	390.2197	496.4586	505.5461	552.8392	587.6365	727.3584	739.9413	781.4773	898.7205	955.5501	966.5886	992.3465	1228.8821	1264.9034	1317.6693	1388.7071	1660.6177	1705.3101	1812.3106	3193.7022	3771.7151
OC1=NC(=O)C=NO1	Oc1nc(=O)cno1	
InChI=1S/C3H2N2O3/c6-2-1-4-8-3(7)5-2/h1H,(H,5,6,7)	InChI=1S/C3H2N2O3/c6-2-1-4-8-3(7)5-2/h1H,(H,5,6,7)
