11
gdb 25146	3.76508	1.30165	0.96725	6.4671	65.98	-0.2955	-0.111	0.1844	1078.9762	0.068357	-447.793497	-447.786705	-447.785761	-447.825226	24.337	
O	-0.0465266097	-0.0589654424	 0.0036841973	-0.341975
C	 0.017148418	 1.1413279037	 0.0091066801	 0.449281
N	-1.1773707466	 1.9224631091	 0.0298101219	-0.316043
C	-1.1629242633	 3.2648336291	 0.0362966059	 0.123095
N	-0.065401693	 3.9639625648	 0.0241996569	-0.29687
C	 1.0704513964	 3.1939454008	 0.004064396	 0.242191
N	 1.1821864128	 1.8976321605	-0.003871383	-0.322927
C	 2.3057435503	 3.953588016	-0.0093785061	 0.310662
N	 3.2861017793	 4.5645243707	-0.020014542	-0.305073
H	-2.046198386	 1.4032797973	 0.0394969513	 0.289708
H	-2.1252061681	 3.7710709303	 0.0524686916	 0.167949
118.3544	143.5698	162.1735	361.2785	453.4991	461.5086	492.2587	569.7026	603.9929	712.3725	760.7214	780.8383	824.8233	922.8075	979.6736	999.806	1125.3885	1165.2597	1302.9755	1407.5458	1464.1319	1555.4379	1654.0102	1850.6588	2365.6486	3173.8761	3592.8788
O=C1NC=NC(=N1)C#N	O=c1[nH]cnc(n1)C#N	
InChI=1S/C4H2N4O/c5-1-3-6-2-7-4(9)8-3/h2H,(H,6,7,8,9)	InChI=1S/C4H2N4O/c5-1-3-6-2-7-4(9)8-3/h2H,(H,6,7,8,9)
