11
gdb 14603	6.29048	0.75512	0.6907	4.3423	66.13	-0.3012	-0.0699	0.2313	1465.7642	0.070601	-397.39396	-397.386031	-397.385086	-397.427993	25.755	
O	 0.3152191504	 0.0825148411	-0.1642818996	-0.248264
C	 0.3856130007	 1.2644283177	-0.2766864993	 0.185096
O	 0.6758991575	 2.073763075	 0.7742433431	-0.163496
C	 0.771226185	 3.4753279537	 0.5070269151	-0.265068
C	 2.1387962707	 3.884932214	 0.2129832287	 0.169885
C	 3.2704290643	 4.225072233	-0.0320627386	-0.012275
C	 4.5495200725	 4.6143497609	-0.3118566762	 0.228364
N	 5.6352793155	 4.9486212465	-0.5517777555	-0.322411
H	 0.2151833781	 1.824571887	-1.2163628178	 0.091476
H	 0.1106046284	 3.7596466284	-0.3232998677	 0.158888
H	 0.4100885068	 3.9834950926	 1.4058503077	 0.177805
32.2169	97.4968	140.8697	155.833	260.9699	346.3197	355.2554	461.2613	574.7028	580.7367	670.6446	736.6593	978.5867	1032.9029	1044.5278	1135.8325	1167.4092	1296.1414	1385.727	1428.6792	1472.9529	1884.0236	2271.6075	2407.5812	2955.1569	3023.4758	3092.7081
O=COCC#CC#N	O=COCC#CC#N	
InChI=1S/C5H3NO2/c6-3-1-2-4-8-5-7/h5H,4H2	InChI=1S/C5H3NO2/c6-3-1-2-4-8-5-7/h5H,4H2
