8
gdb 23895	5.68654	0.88882	0.88881	1.7366	49.25	-0.3307	-0.0819	0.2488	1172.2076	0.033003	-506.597032	-506.590006	-506.589062	-506.629335	23.497	
F	 0.0170622957	 0.0593356545	-0.0262736648	-0.056786
C	-0.0138122731	 1.3926534261	 0.0046896303	 0.265396
F	 1.2418591995	 1.8418977924	-0.0285765806	-0.056843
F	-0.6423387118	 1.8230319176	-1.0904583264	-0.056747
C	-0.7014118971	 1.8667335999	 1.2153682575	-0.134174
C	-1.2649284714	 2.2554616208	 2.2050607231	 0.140505
C	-1.9056559134	 2.6960855965	 3.3293767518	 0.206659
N	-2.4496086184	 3.0703822022	 4.283632879	-0.30801
89.15	90.8912	235.0989	235.6283	403.2106	447.6764	448.3803	564.7035	564.8413	616.3251	616.7242	754.2996	1027.4852	1203.6343	1204.3642	1278.4737	2283.476	2422.4786
FC(F)(F)C#CC#N	FC(F)(F)C#CC#N	
InChI=1S/C4F3N/c5-4(6,7)2-1-3-8	InChI=1S/C4F3N/c5-4(6,7)2-1-3-8
