10
gdb 27034	3.00671	1.3911	0.95107	4.5284	57.95	-0.258	-0.0458	0.2122	1079.7361	0.053646	-508.611044	-508.603779	-508.602834	-508.64317	25.71	
O	 0.1304957016	 1.3505643459	 0.0067913083	-0.385606
C	-0.0044803707	 0.0389906827	 0.0009114154	 0.331912
C	-1.1024368323	-0.7388427803	 0.0030187567	 0.10612
O	-0.658779854	-2.0751703563	-0.0061896477	-0.23554
C	 0.6896200443	-2.0709458933	-0.0135672619	 0.512652
O	 1.4205058518	-2.9996707128	-0.022310314	-0.339548
O	 1.1107671668	-0.7333553367	-0.0091310357	-0.236672
C	-2.4710814152	-0.4463335614	 0.0120264829	 0.244623
N	-3.6025976691	-0.19466835	 0.0195243549	-0.334599
H	 1.0694506669	 1.5801724523	 0.0028464411	 0.336657
124.6407	139.7797	203.5032	261.9472	335.5724	342.0691	470.1171	525.5315	557.2229	650.5607	683.5845	688.0202	762.9841	816.8414	919.5965	1018.8778	1165.2797	1221.975	1328.0339	1434.0962	1787.3495	1971.6325	2341.151	3797.3156
OC1=C(OC(=O)O1)C#N	Oc1c(oc(=O)o1)C#N	
InChI=1S/C4HNO4/c5-1-2-3(6)9-4(7)8-2/h6H	InChI=1S/C4HNO4/c5-1-2-3(6)9-4(7)8-2/h6H
