9
gdb 133447	3.19434	1.51533	1.02778	2.2217	48.22	-0.3117	-0.1119	0.1998	978.2228	0.039991	-569.7173	-569.710475	-569.709531	-569.749429	23.888	
F	 0.0888348245	 0.0312493295	-0.1840026067	-0.01384
C	-0.0781472094	 1.3133212389	-0.0496204395	 0.458471
N	-1.2252184725	 1.751946593	 0.2638065075	-0.20571
O	-1.3261285213	 3.1546398556	 0.3906212631	-0.232272
C	-0.2695893	 3.986922043	 0.1918710259	 0.355723
O	-0.3934273177	 5.1650229622	 0.3079293058	-0.257892
C	 1.0721606723	 3.353291018	-0.1835677935	 0.324447
O	 2.067973247	 3.956616396	-0.3841271447	-0.232864
O	 1.0692161171	 1.9651241139	-0.2838440977	-0.196063
75.7919	105.0999	323.8449	343.6799	382.0806	448.2944	468.6385	495.0393	639.0509	681.867	683.557	797.4806	804.6098	979.1601	1032.4827	1097.8445	1249.3781	1397.7214	1750.2552	1874.6383	1923.7141
FC1=NOC(=O)C(=O)O1	Fc1noc(=O)c(=O)o1	
InChI=1S/C3FNO4/c4-3-5-9-2(7)1(6)8-3	InChI=1S/C3FNO4/c4-3-5-9-2(7)1(6)8-3
