11
gdb 5469	3.73777	1.96174	1.28652	4.686	61.1	-0.2318	-0.0275	0.2043	841.4696	0.074822	-393.636813	-393.63039	-393.629446	-393.667478	23.567	
O	 0.124446594	 1.358661727	 0.0091017596	-0.409357
C	 0.0809311704	 0.0231515696	-0.0249162748	 0.286937
C	 0.0153821273	-0.7644038954	-1.1642695959	 0.12616
N	-0.0082623202	-2.0684959578	-0.6653935908	-0.316895
C	 0.042373744	-1.9880211582	 0.6783731049	 0.030334
N	 0.0970496293	-0.7353914505	 1.1000486116	-0.331346
C	-0.0235560323	-0.4539401618	-2.5321646324	 0.214851
N	-0.0565766269	-0.2178633829	-3.6675771497	-0.354486
H	 0.16570089	 1.6158022847	 0.9393603118	 0.312652
H	-0.0548626912	-2.9041943101	-1.2248632826	 0.287105
H	 0.0373671054	-2.8610964646	 1.3128484984	 0.154044
145.2968	157.6408	317.0743	387.0522	418.5092	498.9684	529.8968	553.2558	611.9436	667.3485	751.7188	752.7761	834.5566	955.0718	1101.6097	1150.0141	1230.9895	1297.2882	1335.126	1411.19	1495.5828	1527.3198	1658.4403	2332.2557	3262.4582	3665.4956	3794.0594
OC1=C(NC=N1)C#N	Oc1c([nH]cn1)C#N	
InChI=1S/C4H3N3O/c5-1-3-4(8)7-2-6-3/h2,8H,(H,6,7)	InChI=1S/C4H3N3O/c5-1-3-4(8)7-2-6-3/h2,8H,(H,6,7)
