10
gdb 128861	10.26631	0.67976	0.63755	2.0362	80.96	-0.2916	-0.1122	0.1794	1551.309	0.054436	-430.423679	-430.416628	-430.415683	-430.456071	24.448	
N	 0.0895697396	-3.7164005887	-0.0188895522	-0.314231
C	 0.0565662216	-2.5549678701	-0.0120703401	 0.186435
C	 0.0147294867	-1.1925840294	-0.0040294196	 0.24881
C	-0.0292731906	 0.0164116672	 0.003206971	-0.01473
C	-0.0890180073	 1.4152449639	 0.0116817834	 0.257657
C	-1.1369994326	 2.2932957461	 0.0307077321	-0.228804
N	-0.5956996024	 3.5513640563	 0.0302645494	-0.097418
N	 0.6620640201	 3.4946681256	 0.0128800931	 0.000634
O	 1.0490513049	 2.1294468091	 0.000157114	-0.204235
H	-2.1978974098	 2.1145060899	 0.0441231689	 0.165884
78.306	86.8357	231.3043	236.6216	433.4888	453.7404	487.9032	590.7993	593.0674	688.7632	701.6578	725.8865	852.6032	941.8337	990.3783	1076.0996	1124.6486	1284.4138	1333.9563	1439.3294	1588.0077	2267.9293	2384.9699	3302.1358
N#CC#CC1=CN=NO1	N#CC#Cc1cnno1	
InChI=1S/C5HN3O/c6-3-1-2-5-4-7-8-9-5/h4H	InChI=1S/C5HN3O/c6-3-1-2-5-4-7-8-9-5/h4H
