11
gdb 130912	2.24848	1.6158	0.94017	2.8978	64.8	-0.2895	-0.1003	0.1892	1103.0423	0.065759	-451.54853	-451.541254	-451.54031	-451.58105	25.183	
O	-0.0639955986	 0.0233968147	-0.0009237759	-0.218404
C	-0.001619403	 1.2230253673	 0.007135312	 0.08957
C	 1.2774948191	 1.9910823206	-0.000510083	 0.217295
N	 2.4463182622	 1.3930442633	-0.0172883222	-0.148906
O	 3.3879118776	 2.4057921622	-0.0195009601	-0.14091
C	 2.7801933459	 3.5922161684	-0.0042087109	 0.020511
C	 1.4263290047	 3.4199507927	 0.0086016072	-0.022209
C	 0.4141242186	 4.4081391422	 0.0265753709	 0.213104
N	-0.4261786596	 5.2039051327	 0.0413214837	-0.324223
H	-0.9045149996	 1.8665568589	 0.0204862565	 0.1171
H	 3.4135994028	 4.465054567	-0.0042454482	 0.197072
99.4566	116.8949	175.3489	231.9768	261.7532	433.0122	520.2623	556.4445	612.6601	623.4471	706.579	787.8949	870.4312	942.1694	956.373	1034.4403	1153.7026	1178.2894	1294.6533	1368.4687	1451.6013	1488.0651	1604.0114	1825.7196	2357.6167	2934.9005	3278.8934
O=CC1=NOC=C1C#N	O=Cc1nocc1C#N	
InChI=1S/C5H2N2O2/c6-1-4-3-9-7-5(4)2-8/h2-3H	InChI=1S/C5H2N2O2/c6-1-4-3-9-7-5(4)2-8/h2-3H
