11
gdb 23672	3.98125	1.78868	1.23419	1.9115	54.8	-0.2704	-0.0322	0.2383	840.3595	0.072729	-446.713423	-446.707709	-446.706765	-446.743449	21.727	
F	-0.0017582165	 0.027610581	 0.0031815852	-0.066294
C	-0.0213983377	 1.3557409098	 0.010749066	 0.356135
C	-1.2374865951	 2.0161913422	 0.0308628549	-0.420784
C	-1.1692564413	 3.4069652291	 0.0374923433	 0.373534
F	-2.3123086347	 4.0829431315	 0.0569711475	-0.068285
N	-0.0692701678	 4.1244917664	 0.0266030565	-0.315247
C	 1.0866082814	 3.4483329405	 0.0072290875	 0.018211
C	 1.1763000088	 2.0634130164	-0.0016365386	-0.264639
H	-2.1804467418	 1.4869361784	 0.0408027699	 0.134972
H	 1.9897883016	 4.0517061972	-0.0016926452	 0.129496
H	 2.1272574532	 1.5474887174	-0.0173834169	 0.122901
218.8854	247.7298	345.2123	478.2685	488.174	518.7053	569.5585	665.1797	753.0647	782.1025	845.576	873.9713	985.3135	987.3835	1011.7696	1106.8319	1177.2796	1306.215	1327.2641	1352.0039	1460.0632	1519.3821	1635.4539	1638.854	3173.4971	3225.0921	3231.4689
FC1=CC(F)=NC=C1	Fc1cc(F)ncc1	
InChI=1S/C5H3F2N/c6-4-1-2-8-5(7)3-4/h1-3H	InChI=1S/C5H3F2N/c6-4-1-2-8-5(7)3-4/h1-3H
