9
gdb 23875	3.21438	1.75072	1.41681	2.8436	43.95	-0.2995	-0.095	0.2045	816.1787	0.042811	-527.669235	-527.661803	-527.660859	-527.702214	25.11	
F	 0.0433172966	 0.0745505722	-0.0655748712	-0.041898
C	-0.021096638	 1.3927704774	 0.0172695313	 0.213498
F	 1.2201575252	 1.8925863937	 0.0103294011	-0.069059
F	-0.6667592625	 1.8673109875	-1.0543652171	-0.069008
C	-0.7577180029	 1.8323563444	 1.3125192535	 0.106004
O	-1.1844441272	 1.017831051	 2.0890021562	-0.245778
C	-0.867897997	 3.2601661321	 1.4730340788	 0.285851
C	-0.9609067081	 4.451849938	 1.6088321729	-0.412168
H	-1.0441501061	 5.5053347238	 1.7307495046	 0.232557
29.8168	127.9424	191.1063	269.1451	287.4497	402.2191	429.5956	518.9571	575.4235	666.1957	676.8953	731.3838	771.1042	777.836	1062.618	1192.7625	1244.7906	1319.7283	1806.1975	2220.5539	3490.3087
FC(F)(F)C(=O)C#C	FC(F)(F)C(=O)C#C	
InChI=1S/C4HF3O/c1-2-3(8)4(5,6)7/h1H	InChI=1S/C4HF3O/c1-2-3(8)4(5,6)7/h1H
