11
gdb 130105	5.65165	1.40946	1.12878	3.12	61.59	-0.245	-0.0675	0.1774	950.2693	0.067764	-480.987965	-480.981638	-480.980694	-481.018531	24.115	
N	-0.0427327383	 1.2792904786	 0.1704680192	-0.571107
C	-0.0039450951	-0.073791754	 0.0731855594	 0.448249
N	-1.1200181605	-0.8192798407	 0.0482050883	-0.344882
N	-0.5462978997	-2.0553270025	 0.0075602496	 0.090069
N	-0.9442677598	-3.3209687606	-0.03991323	-0.037216
N	 0.0681907368	-4.0653867197	-0.0736929382	-0.007741
O	 1.2826959187	-3.2014745194	-0.0473797676	-0.250373
C	 0.8072665009	-1.9748421646	 0.0020111565	 0.555565
N	 1.2187564525	-0.7362847128	 0.0418643737	-0.437103
H	 0.7959544035	 1.7635466496	-0.1048916267	 0.277864
H	-0.915846009	 1.7254992762	-0.059643414	 0.276674
155.8622	306.9977	323.8525	359.6335	402.8838	448.8435	501.9238	616.171	621.6322	631.7531	731.6582	771.1658	805.611	891.1809	991.4827	1023.5865	1087.5514	1253.8397	1348.1793	1401.9774	1415.3001	1446.3994	1565.2189	1653.6312	1661.3617	3604.1325	3722.9531
NC1=NN2N=NOC2=N1	Nc1nn2nnoc2n1	
InChI=1S/C2H2N6O/c3-1-4-2-8(5-1)6-7-9-2/h(H2,3,5)	InChI=1S/C2H2N6O/c3-1-4-2-8(5-1)6-7-9-2/h(H2,3,5)
