11
gdb 23842	5.77575	1.57552	1.23786	2.0179	55.77	-0.2447	-0.0755	0.1692	849.8046	0.073496	-438.720766	-438.71484	-438.713896	-438.750963	22.329	
F	-0.0293873465	 0.0442500812	 0.0040067821	-0.064215
C	-0.0322243003	 1.371304507	 0.0107645042	 0.34657
N	-1.1798447108	 1.9521552791	 0.029020595	-0.238834
N	-1.1501535929	 3.296647539	 0.0354791198	-0.270492
C	-0.0380367991	 4.1449681601	 0.0248850675	 0.43057
O	-0.1701833382	 5.3548333314	 0.0331801902	-0.385922
C	 1.2199748652	 3.4016903663	 0.0045719076	-0.179869
C	 1.2242836924	 2.0486688288	-0.0024098041	-0.205841
H	-2.0579888962	 3.7421302629	 0.0499219001	 0.282185
H	 2.1301459198	 3.9884740263	-0.0044159471	 0.145214
H	 2.1379674463	 1.465135438	-0.0174679552	 0.140635
123.7723	330.0934	372.7771	404.7646	479.7931	494.6199	525.8977	629.9976	713.8706	754.9021	802.7021	830.3863	865.1383	996.1799	1011.7786	1127.3257	1238.0836	1282.5614	1302.0921	1437.8468	1462.9049	1590.8684	1669.1378	1792.241	3197.7807	3223.5149	3599.8692
FC1=NNC(=O)C=C1	Fc1n[nH]c(=O)cc1	
InChI=1S/C4H3FN2O/c5-3-1-2-4(8)7-6-3/h1-2H,(H,7,8)	InChI=1S/C4H3FN2O/c5-3-1-2-4(8)7-6-3/h1-2H,(H,7,8)
