11
gdb 129137	2.03956	1.11839	1.09931	3.2532	56.55	-0.2881	-0.1036	0.1846	1174.3576	0.062519	-484.934899	-484.925454	-484.92451	-484.974639	28.226	
N	-0.1720131495	 1.2596203517	 0.4014415052	-0.457952
C	 0.3141432112	 0.1331454524	 0.0963181743	 0.240683
N	 1.4894673454	-0.1694069748	-0.6283387931	-0.300208
C	 1.5276956322	-1.447616968	-0.6587227375	 0.139379
O	 0.5377076151	-2.1554826706	-0.0501651771	-0.208273
N	-1.6890536318	-1.219670395	-2.4707793306	-0.006243
N	-2.577733342	-1.2670587932	-3.1147100882	 0.00852
C	-0.3320100689	-1.1838401845	 0.487799494	 0.433477
O	-1.310877834	-1.4645702227	 1.0908448882	-0.272654
H	 0.428185593	 2.0046099102	 0.0355783178	 0.251285
H	 2.2936411292	-2.0494440055	-1.1337539931	 0.171986
13.7098	17.5414	44.3998	54.3967	63.9544	161.3752	333.9127	344.2099	535.9598	561.3836	644.2517	766.6657	825.1778	857.6624	915.3826	950.3641	990.8736	1096.7778	1160.2836	1308.8972	1353.6686	1634.39	1759.2505	1938.7122	2434.6623	3224.2192	3450.3948	13.7114	17.5433	44.4	54.3979	63.9553	161.3754	333.9128	344.2103	535.9601	561.3836	644.2515	766.6659	825.1776	857.6626	915.383	950.3643	990.8741	1096.7778	1160.2839	1308.8972	1353.6694	1634.39	1759.251	1938.7126	2434.6622	3224.2194	3450.3952
N=C1N=CON=NC1=O	[NH]C1=N[CH]OC1=O.N#N	
InChI=1S/C3H2N4O2/c4-2-3(8)6-7-9-1-5-2/h1,4H	InChI=1S/C3H2N2O2.N2/c4-2-3(6)7-1-5-2;1-2/h1,4H;
