11
gdb 131926	4.5688	1.18244	0.93934	4.1048	60.71	-0.2635	-0.1076	0.1559	1107.9739	0.06506	-525.737091	-525.730146	-525.729202	-525.769173	24.873	
N	-0.1623800583	 1.2323243807	 0.0107406183	-0.550369
C	-0.0513629823	-0.0092447299	 0.002922492	 0.520033
O	 1.1173029364	-0.7730742786	-0.0072996255	-0.206443
C	 0.7418876484	-2.0826536441	-0.0130722487	-0.064508
C	-0.5911268578	-2.1306121974	-0.0066690834	 0.3969
O	-1.1174816259	-0.8701736283	 0.0032556145	-0.194436
N	-1.4639239682	-3.2606691154	-0.0088847655	 0.341582
O	-0.9078080463	-4.3561446187	-0.0179534793	-0.371664
O	-2.6652510111	-3.046669101	-0.0017249925	-0.334585
H	 0.7426363633	 1.6940542005	 0.0089572009	 0.25496
H	 1.4985634118	-2.8462596678	-0.0212750908	 0.20853
84.5641	135.983	189.568	279.9345	406.886	447.1297	558.1523	571.44	715.7009	744.8323	761.429	782.3486	827.205	846.0291	879.7987	975.7597	1005.756	1095.3597	1178.4692	1270.9401	1344.7217	1410.9793	1635.4326	1693.9847	1837.246	3317.2249	3561.3554
N=C1OC=C(O1)N(=O)=O	[NH][C@H]1OC=C(O1)N(=O)=O	
InChI=1S/C3H2N2O4/c4-3-8-1-2(9-3)5(6)7/h1,4H	InChI=1S/C3H3N2O4/c4-3-8-1-2(9-3)5(6)7/h1,3-4H/t3-/m0/s1
