11
gdb 21533	3.70874	1.99807	1.30024	7.225	60.08	-0.2461	-0.0181	0.228	834.7801	0.074412	-389.771391	-389.764697	-389.763752	-389.802265	24.334	
N	 0.0691767051	 1.3948200718	 0.1609129841	-0.611755
C	-0.00521201	 0.0321152271	 0.0398301492	 0.303267
C	-1.0950068094	-0.8329295104	 0.0026996577	 0.187348
N	-0.6267277162	-2.124542275	-0.0427849603	-0.243615
N	 0.6575057287	-2.1158562063	-0.0421633566	-0.107979
N	 1.0540559603	-0.8017853502	 0.0109468627	-0.236742
C	-2.4569799896	-0.4615683866	 0.0003518552	 0.216938
N	-3.5530312744	-0.0846051291	-0.0044816461	-0.349569
H	 0.8333619794	 1.8518911181	-0.315107303	 0.269334
H	-0.8122867371	 1.8675604281	 0.0160039432	 0.2859
H	 2.0365648132	-0.5831885975	 0.0559492838	 0.286874
135.2027	173.6294	267.7295	303.1593	366.3833	515.9284	539.3122	544.7863	590.7111	619.871	700.0156	749.3526	762.106	987.7255	1006.2233	1091.6854	1221.3842	1300.7968	1315.8911	1429.3857	1520.9489	1625.5139	1671.0232	2341.1073	3563.9193	3657.7286	3661.6947
NC1=C(N=NN1)C#N	Nc1c(nn[nH]1)C#N	
InChI=1S/C3H3N5/c4-1-2-3(5)7-8-6-2/h(H3,5,6,7,8)	InChI=1S/C3H3N5/c4-1-2-3(5)7-8-6-2/h(H3,5,6,7,8)
