10
gdb 130786	3.26777	1.55382	1.05308	3.58	63.68	-0.2997	-0.1532	0.1466	990.9384	0.054026	-467.59237	-467.585483	-467.584539	-467.624276	24.254	
O	 0.0312058322	 0.0050226974	 0.3859282875	-0.283037
C	 0.0247052402	 1.150296443	 0.0495767243	 0.446476
O	-1.1566754628	 1.7547375985	-0.3309351351	-0.240457
N	-1.2296138293	 3.0780754003	-0.7312338228	-0.022802
C	-0.121099328	 3.736532027	-0.7333611985	 0.096795
N	 1.1339057261	 3.2839344861	-0.3849262781	-0.276067
C	 1.2036203029	 2.0509923035	-0.0117976453	 0.080024
C	 2.4689999978	 1.4901163995	 0.3704808505	 0.309269
N	 3.4863702665	 1.0357009072	 0.6788050845	-0.285151
H	-0.2001271656	 4.7701598275	-1.049812337	 0.17495
81.3388	152.1117	188.8981	338.182	388.995	480.3609	493.6101	550.1861	597.8317	618.556	712.9696	820.2645	894.6684	946.2055	950.4369	1055.0352	1174.7649	1288.0368	1354.85	1550.896	1640.2032	1862.6944	2355.167	3218.2107
O=C1ON=CN=C1C#N	O=c1oncnc1C#N	
InChI=1S/C4HN3O2/c5-1-3-4(8)9-7-2-6-3/h2H	InChI=1S/C4HN3O2/c5-1-3-4(8)9-7-2-6-3/h2H
