11
gdb 35986	10.01563	0.44999	0.43179	4.7007	95.98	-0.2859	-0.0922	0.1937	2263.6254	0.065299	-377.244442	-377.235862	-377.234918	-377.278949	28.735	
N	-0.1437425028	-1.1731328324	-0.0028813743	-0.282328
C	-0.0700017305	-0.0214835739	 0.0026414005	 0.285808
C	 0.005336678	 1.4452231385	 0.009798134	-0.510942
C	 1.3740699568	 1.9453996444	-0.0005949464	 0.279132
C	 2.5042135348	 2.3768674752	-0.0090783334	-0.217548
C	 3.7673093246	 2.8588525608	-0.018559807	-0.191193
C	 4.9012697582	 3.2947618697	-0.0270541055	 0.468027
C	 6.1698034936	 3.7841637715	-0.0365427464	 0.084898
N	 7.2544317559	 4.2043427751	-0.0446373349	-0.317639
H	-0.5415116742	 1.8286299776	-0.8618184686	 0.200894
H	-0.5247166045	 1.8191885635	 0.895773472	 0.200893
48.755	75.3437	118.4414	196.9495	235.4541	339.9498	359.7356	372.3215	445.8738	527.6337	530.3749	614.2193	620.466	651.6709	903.5427	928.2818	977.1476	1230.2764	1292.9541	1353.1311	1437.7254	2224.8417	2352.0928	2365.4777	2377.4077	3025.1805	3057.5414
N#CCC#CC#CC#N	N#CCC#CC#CC#N	
InChI=1S/C7H2N2/c8-6-4-2-1-3-5-7-9/h4H2	InChI=1S/C7H2N2/c8-6-4-2-1-3-5-7-9/h4H2
