11
gdb 21908	5.69558	1.64692	1.27752	4.4059	55.92	-0.2593	-0.0873	0.172	845.0994	0.072431	-434.545669	-434.539476	-434.538532	-434.57609	23.213	
O	-0.0906104478	 1.3516596378	 0.0107439102	-0.403202
C	 0.0031282932	 0.0091570704	 0.0028891484	 0.441102
N	 1.1783551021	-0.5207047366	-0.0072728774	-0.177551
O	 1.2450086493	-1.9108831473	-0.0151951734	-0.259029
C	 0.1332909619	-2.738115744	-0.0124022429	 0.455366
O	 0.3110024066	-3.9264792315	-0.0210546359	-0.330847
C	-1.1644694438	-2.0643464887	-0.0012860646	-0.213228
C	-1.2366057143	-0.7252232818	 0.0064394612	-0.126057
H	 0.8106751131	 1.7064114455	 0.0071361859	 0.315608
H	-2.0353275819	-2.7079105483	 0.0003108984	 0.150529
H	-2.1705736784	-0.1752691653	 0.0150114501	 0.147311
105.5395	292.2245	351.854	367.8668	464.2779	501.3543	504.912	587.468	622.7397	759.6662	785.8899	807.6199	869.5795	936.2644	1020.1075	1053.5493	1116.4615	1209.6043	1256.8508	1358.6428	1480.8255	1623.0495	1694.105	1837.7477	3202.8132	3225.6389	3756.7105
OC1=NOC(=O)C=C1	Oc1noc(=O)cc1	
InChI=1S/C4H3NO3/c6-3-1-2-4(7)8-5-3/h1-2H,(H,5,6)	InChI=1S/C4H3NO3/c6-3-1-2-4(7)8-5-3/h1-2H,(H,5,6)
