11
gdb 33388	1.53485	1.50729	1.5042	4.3011	70.72	-0.3113	-0.0238	0.2875	1053.4504	0.062033	-377.183477	-377.174472	-377.173527	-377.217265	31.451	
C	-0.0038980087	-1.2141574694	-0.0044152015	-0.391766
C	-0.0039238173	-0.0163059536	 0.0020148463	 0.347165
C	-0.0034707202	 1.4578616128	 0.0099177869	-0.41621
C	 1.3723554129	 1.9872330484	-0.0003761902	 0.347164
C	 2.4904555919	 2.4169657472	-0.0087409042	-0.391761
C	-0.7337159931	 1.9580275211	-1.1872417228	 0.335624
N	-1.2910064771	 2.3399005542	-2.1222087126	-0.312639
C	-0.7106733859	 1.9450843591	 1.2260988647	 0.335624
N	-1.2499682883	 2.3168531961	 2.175578719	-0.312639
H	-0.0037005556	-2.2774428486	-0.0101256068	 0.229718
H	 3.4830331512	 2.7982036927	-0.0161574487	 0.229719
110.8645	111.822	139.1423	148.0871	150.5093	324.6368	334.6638	349.1429	526.951	535.1349	558.5488	567.2184	576.6695	596.4102	680.886	682.5057	687.6049	687.7414	1053.2998	1067.2356	1087.7277	2255.5176	2259.2062	2371.592	2377.6983	3493.9649	3494.6967
C#CC(C#C)(C#N)C#N	C#CC(C#C)(C#N)C#N	
InChI=1S/C7H2N2/c1-3-7(4-2,5-8)6-9/h1-2H	InChI=1S/C7H2N2/c1-3-7(4-2,5-8)6-9/h1-2H
