11
gdb 133357	3.29386	1.47325	1.01796	5.5355	56.88	-0.2651	-0.0665	0.1986	1021.7352	0.064596	-529.970764	-529.963046	-529.962101	-530.004026	26.996	
N	 0.0111457698	 1.3317330746	 0.02558688	-0.54766
C	-0.047108037	-0.0094799868	 0.0072515786	 0.550387
N	-1.1738836884	-0.6460904531	 0.007609584	-0.396929
C	-1.1343592788	-2.0217035768	-0.0034642886	 0.301255
O	-2.096610791	-2.7515142855	-0.0046995466	-0.328943
C	 0.2569848298	-2.5836147022	-0.0155701598	 0.241644
F	 0.3687593549	-3.8886448581	-0.0262538379	-0.015904
N	 1.3526310492	-1.9299059442	-0.0175591486	-0.127819
O	 1.2011564101	-0.538924306	-0.0057843889	-0.258376
H	 0.8940691545	 1.8094294632	-0.0099193518	 0.288135
H	-0.8525661432	 1.8446840448	 0.0066833198	 0.29421
48.1647	82.8522	179.1497	316.2216	343.9787	355.4981	424.8438	489.341	520.1105	545.0361	619.3316	718.0634	745.7673	807.4036	818.3683	939.4873	1007.264	1121.1007	1282.2867	1394.7549	1426.1421	1590.3751	1678.5567	1689.1252	1816.2817	3629.1167	3765.9255
NC1=NC(=O)C(F)=NO1	Nc1nc(=O)c(F)no1	
InChI=1S/C3H2FN3O2/c4-1-2(8)6-3(5)9-7-1/h(H2,5,6,8)	InChI=1S/C3H2FN3O2/c4-1-2(8)6-3(5)9-7-1/h(H2,5,6,8)
