9
gdb 21434	7.16725	1.4419	1.2004	1.8842	53.81	-0.2872	-0.0964	0.1908	875.0226	0.048795	-429.496954	-429.490856	-429.489912	-429.527486	21.512	
N	-0.1982429451	 1.2733075832	 0.011497317	-0.560891
C	-0.0275877859	 0.039914655	 0.0030793435	 0.51187
O	 1.1374079048	-0.6981387458	-0.0073141808	-0.2257
N	 0.8196601665	-2.0634712531	-0.0137726426	-0.143332
C	-0.46487986	-2.0819935004	-0.0068319018	 0.347838
O	-1.0650515436	-0.8712285908	 0.0034502017	-0.194388
C	-1.2599105139	-3.2585870962	-0.0094777991	 0.292954
N	-1.9152060106	-4.210052152	-0.0115574717	-0.28944
H	 0.6819684378	 1.78144814	 0.0099640837	 0.261088
129.9	161.4135	243.4228	430.0641	474.0934	563.1131	581.3656	693.3549	725.7782	764.1897	785.672	915.2056	919.366	979.9339	1044.2264	1232.0627	1364.7543	1639.468	1837.0092	2375.8168	3558.4578
N=C1ON=C(O1)C#N	[NH][C@H]1ON=C(O1)C#N	
InChI=1S/C3HN3O2/c4-1-2-6-8-3(5)7-2/h5H	InChI=1S/C3H2N3O2/c4-1-2-6-8-3(5)7-2/h3,5H/t3-/m1/s1
