11
gdb 5015	3.43591	2.4397	1.42667	3.3253	56.23	-0.2437	-0.0604	0.1833	770.8525	0.073144	-434.585596	-434.57941	-434.578466	-434.615958	22.979	
O	-0.0469539624	 1.3593900206	 0.0104486482	-0.402201
C	 0.0500836156	 0.0134533509	 0.0026211572	 0.175974
C	 1.1983072307	-0.7096210621	-0.0083624804	-0.125838
N	 1.2214787894	-2.0900633195	-0.0156935541	-0.260946
C	 0.0862227158	-2.6737976427	-0.0114991321	 0.134109
O	-1.117987692	-2.0703583145	-0.0008423704	-0.199975
C	-1.2420851019	-0.6747209176	 0.0068286522	 0.421312
O	-2.332961213	-0.1866188194	 0.0170035776	-0.31949
H	 0.8374263219	 1.7445703772	 0.0071452658	 0.308689
H	 2.1686461569	-0.2184942961	-0.0117978758	 0.115352
H	-0.009342811	-3.7540886167	-0.0164110583	 0.153015
128.0078	258.6192	317.0208	383.1806	443.7797	502.1463	527.2707	588.0713	603.3362	742.4387	784.6314	905.975	911.1809	934.4159	1021.1054	1123.3418	1188.8624	1235.6692	1325.9942	1405.4536	1458.8123	1614.7672	1667.4589	1866.9873	3155.9977	3208.6632	3803.2256
OC1=CN=COC1=O	Oc1cncoc1=O	
InChI=1S/C4H3NO3/c6-3-1-5-2-8-4(3)7/h1-2,6H	InChI=1S/C4H3NO3/c6-3-1-5-2-8-4(3)7/h1-2,6H
