11
gdb 130759	6.55315	0.92038	0.81106	3.536	56.98	-0.3069	-0.0411	0.2658	1258.7626	0.065306	-488.704517	-488.697193	-488.696249	-488.737421	25.269	
O	 0.1823307353	-0.0226967698	-0.0003720016	-0.34149
C	 0.0188643439	 1.1473722235	 0.0087986592	 0.523499
O	-1.1564422883	 1.8274343156	 0.0293840336	-0.225014
N	-0.8964771318	 3.2200662468	 0.0339406185	-0.152867
C	 0.3801163403	 3.2973826899	 0.0164516534	 0.472521
C	 1.2152792785	 4.5350313126	 0.0122675176	-0.47297
C	 0.4297539973	 5.7658839933	 0.0281164274	 0.304814
N	-0.1528999601	 6.7613424457	 0.0402575304	-0.279308
O	 1.0253445104	 2.1108378344	 0.0003325765	-0.230269
H	 1.8836484395	 4.513549109	 0.8820106944	 0.200551
H	 1.8619128252	 4.5222109089	-0.8739047594	 0.200534
46.2413	114.9705	173.3252	287.9933	310.5806	377.6769	440.5853	551.6635	635.1586	725.8804	769.1897	783.4997	877.8867	951.9468	955.5861	962.22	1007.3976	1144.7573	1230.6858	1276.6266	1424.3763	1447.9382	1700.9826	1965.6751	2385.9591	3041.8863	3075.2923
O=C1ON=C(CC#N)O1	O=c1onc(CC#N)o1	
InChI=1S/C4H2N2O3/c5-2-1-3-6-9-4(7)8-3/h1H2	InChI=1S/C4H2N2O3/c5-2-1-3-6-9-4(7)8-3/h1H2
