11
gdb 5675	5.52469	2.32612	1.63691	0.9277	56.1	-0.2235	-0.0038	0.2197	693.6191	0.075132	-397.414827	-397.409699	-397.408755	-397.443987	19.926	
O	-0.0945567855	 1.3016465628	 0.0098800227	-0.205518
C	 1.2208527624	 1.7817849456	 0.0001160317	-0.014112
C	 2.142799482	 0.7767124543	-0.0144749062	-0.30634
C	 1.3663455755	-0.4338166501	-0.0134841171	 0.182695
C	 0.0790051768	-0.015971261	 0.0011303401	 0.408303
O	-0.7838457275	-1.0407816733	 0.0038358405	-0.207336
C	 0.0999703733	-2.1220169232	-0.010023816	 0.038153
N	 1.3594174457	-1.8287188988	-0.0209174232	-0.332112
H	 1.297426107	 2.8551431494	 0.0053074968	 0.147872
H	 3.2125768604	 0.9096615959	-0.0241270605	 0.130443
H	-0.36954146	-3.0919418815	-0.0106237688	 0.157953
198.7823	354.3347	478.9545	589.025	626.5585	696.2168	697.3477	749.5376	759.9065	792.6509	834.63	883.7128	944.1256	998.0272	1028.9535	1123.8804	1165.8515	1256.5991	1312.5472	1431.5003	1504.7997	1522.0886	1544.8427	1624.6083	3266.9413	3291.4315	3301.421
O1C=CC2=C1OC=N2	o1ccc2c1ocn2	
InChI=1S/C5H3NO2/c1-2-7-5-4(1)6-3-8-5/h1-3H	InChI=1S/C5H3NO2/c1-2-7-5-4(1)6-3-8-5/h1-3H
