11
gdb 130007	3.09952	1.41191	0.97023	6.2024	69.06	-0.2312	-0.0882	0.1431	1078.9014	0.065872	-484.8752	-484.867574	-484.86663	-484.907596	27.142	
N	 0.1720388116	 1.2343943776	 0.0998800365	-0.578949
C	-0.1289163565	-0.072601582	 0.0368458215	 0.524968
N	-1.3074671247	-0.6044892591	 0.0175038101	-0.394245
C	-1.12287112	-2.0015211369	-0.0094258805	 0.317043
C	 0.3546370222	-2.1591155227	-0.0059466043	 0.280711
O	 0.9542736349	-0.9044598726	 0.0232015963	-0.23486
N	 1.082143146	-3.2175285998	-0.0246376737	 0.082186
N	 1.652192198	-4.2066677503	-0.0402651024	-0.222675
O	-1.9613228947	-2.8654693012	-0.0330934142	-0.35071
H	 1.1156128913	 1.5321896588	-0.0792774307	 0.283438
H	-0.5792964982	 1.8887107282	-0.0362795187	 0.293093
101.3667	143.9031	196.6184	264.2205	306.5146	336.8983	438.1799	472.1972	491.5562	553.6886	651.5067	674.1677	726.677	764.7197	809.0363	983.8781	1054.45	1157.041	1216.176	1397.5908	1482.8838	1598.5874	1708.7547	1841.4328	2173.2437	3620.5972	3748.3918
NC1=NC2=C(O1)N=NO2	NC1=NC(=O)[C](O1)[N][N]	
InChI=1S/C3H2N4O2/c4-3-5-1-2(8-3)6-7-9-1/h(H2,4,5)	InChI=1S/C3H2N4O2/c4-3-6-1(8)2(7-5)9-3/h(H2,4,6,8)
