11
gdb 21392	5.75921	2.39051	1.68932	1.6957	56.18	-0.2479	-0.015	0.2329	673.2954	0.077172	-389.769144	-389.764024	-389.76308	-389.79825	19.502	
N	 0.0186297904	 1.3232956721	 0.0497667194	-0.363996
N	 1.3113161646	 1.7847617156	 0.0251628437	-0.19575
C	 2.0688719698	 0.7185041615	-0.0149787772	 0.028673
N	 1.2954031213	-0.4129351633	-0.0172238126	 0.035739
N	 1.3773549499	-1.7749338739	-0.0447581049	-0.284862
C	 0.0825455498	-2.0915748509	-0.0172898912	 0.041507
N	-0.8278683935	-1.0693804813	 0.025906604	-0.394305
C	-0.0130702616	-0.0299374681	 0.0244236134	 0.526195
H	-0.7436624669	 1.9761459407	 0.0834975846	 0.296297
H	 3.1447421828	 0.7313310115	-0.0426743221	 0.176046
H	-0.2253175067	-3.127325654	-0.0288567271	 0.134456
232.4615	324.7961	406.4887	490.9073	654.4948	656.3468	733.782	770.462	804.2144	828.0677	920.7061	963.5674	996.3402	1072.649	1182.425	1224.6413	1242.955	1267.9901	1352.6319	1383.8363	1424.909	1466.7306	1560.8682	1653.3015	3255.9791	3300.3914	3702.6878
N1N=CN2N=CN=C12	[nH]1ncn2ncnc12	
InChI=1S/C3H3N5/c1-4-3-7-5-2-8(3)6-1/h1-2H,(H,4,6,7)	InChI=1S/C3H3N5/c1-4-3-7-5-2-8(3)6-1/h1-2H,(H,4,6,7)
