11
gdb 133415	5.51327	1.05236	0.88369	4.2861	61.62	-0.2655	-0.1031	0.1624	1148.6062	0.064985	-492.834609	-492.827724	-492.826779	-492.866616	24.348	
F	-0.025668231	 0.0590205785	 0.0038975579	-0.037753
C	-0.0341454331	 1.3756337463	 0.010470336	 0.353113
C	-1.2510664851	 2.0643488906	 0.0306531047	-0.120637
N	-1.2314870481	 3.3831901989	 0.0372430007	-0.240825
C	-0.0117051707	 3.9480946484	 0.0236293823	 0.282779
C	 0.0044407119	 5.4534575686	 0.0313331988	 0.12908
O	 0.9999257499	 6.1234831966	 0.0215647618	-0.220366
N	 1.1563529277	 3.3031034814	 0.0045609461	-0.197939
N	 1.1369467915	 1.9746734748	-0.0021498349	-0.212848
H	-2.2034611349	 1.5417853326	 0.0409746191	 0.159295
H	-1.0186360082	 5.8819706734	 0.0474273575	 0.106103
76.8968	146.7664	200.7292	350.9745	398.5572	416.7916	469.4793	550.0892	619.044	657.0584	811.213	817.4849	890.272	958.08	1044.8188	1059.0784	1158.0711	1271.7898	1297.7945	1359.1939	1417.2127	1448.8573	1561.8848	1593.9975	1837.2365	2934.8097	3176.9323
FC1=CN=C(C=O)N=N1	Fc1cnc(C=O)nn1	
InChI=1S/C4H2FN3O/c5-3-1-6-4(2-9)8-7-3/h1-2H	InChI=1S/C4H2FN3O/c5-3-1-6-4(2-9)8-7-3/h1-2H
