11
gdb 130760	5.92282	1.08916	0.91999	3.1307	70.09	-0.2758	-0.1186	0.1572	1139.6854	0.064373	-451.49344	-451.486226	-451.485282	-451.525514	26.289	
O	 0.0553878076	 0.0368343017	 0.5499731795	-0.312273
C	 0.034579585	 1.1429975088	 0.0918411847	 0.444304
O	-1.1713772115	 1.7183078454	-0.256012352	-0.242449
N	-1.2665073651	 2.9915740173	-0.7895907385	-0.099291
C	-0.15138645	 3.6379384872	-0.9534897918	 0.20518
N	 1.1328177549	 3.181915108	-0.6476118016	-0.231607
C	 1.2055131767	 2.0014496518	-0.1543320364	-0.109681
C	-0.2518166319	 4.9486884838	-1.5034127157	 0.297081
C	-0.3126849471	 6.0559241912	-1.9657475301	-0.335301
H	 2.175746719	 1.5833058236	 0.1072146806	 0.166576
H	-0.3707107279	 7.0351052812	-2.3749834787	 0.21746
66.3687	151.0389	207.6831	329.6648	423.0989	431.4608	456.676	530.8039	594.9682	626.8469	661.9117	687.0569	744.0619	793.0755	798.7166	925.845	975.5127	1033.4215	1206.8895	1282.8114	1363.6141	1533.9437	1666.9937	1854.7311	2247.401	3163.3315	3498.4575
O=C1ON=C(N=C1)C#C	O=c1onc(nc1)C#C	
InChI=1S/C5H2N2O2/c1-2-4-6-3-5(8)9-7-4/h1,3H	InChI=1S/C5H2N2O2/c1-2-4-6-3-5(8)9-7-4/h1,3H
