10
gdb 21735	5.62886	2.31588	1.6408	3.8359	53.26	-0.2645	-0.0552	0.2093	676.0063	0.063358	-413.43566	-413.430801	-413.429857	-413.464607	18.699	
O	-0.0021136904	 1.2689311796	 0.0087851186	-0.167542
C	 1.2632653954	 1.7670478219	-0.0005908848	-0.068074
C	 2.0972970776	 0.7054913136	-0.0140732692	 0.20947
O	 3.3950029767	 0.2845053716	-0.0285748412	-0.216419
C	 3.2501466979	-1.0912204464	-0.034411611	 0.072679
N	 2.0569470988	-1.5777808869	-0.0257045311	-0.320376
C	 1.2636826051	-0.4304089818	-0.0121567163	 0.386694
N	-0.0139691502	-0.1332355356	 0.0014758802	-0.236607
H	 1.3519580606	 2.8395734816	 0.0042113599	 0.169826
H	 4.1794950585	-1.6418585276	-0.0461111051	 0.170351
274.5783	355.3826	511.1694	578.0816	614.801	714.1941	751.5412	782.2873	794.2461	885.8674	905.3929	912.9888	981.0861	1054.6611	1092.8583	1161.8608	1285.5111	1325.9261	1440.9795	1550.3153	1582.4934	1693.9388	3269.3462	3291.5778
O1C=C2OC=NC2=N1	o1cc2ocnc2n1	
InChI=1S/C4H2N2O2/c1-3-4(6-8-1)5-2-7-3/h1-2H	InChI=1S/C4H2N2O2/c1-3-4(6-8-1)5-2-7-3/h1-2H
