11
gdb 21611	2.41248	1.31927	0.88304	2.3363	54.63	-0.2599	-0.0178	0.2421	1184.2259	0.066608	-426.979751	-426.96908	-426.968136	-427.020372	31.067	
N	-0.1506074394	 1.5379410122	-0.0177174316	-0.532067
C	-0.1231333678	 0.1947109769	 0.1686464457	 0.432106
N	-1.4191557567	-0.3591375224	-0.0639387467	-0.377777
C	-1.703644462	-1.5248604076	 0.1965214152	 0.522014
N	-2.1353303821	-2.6054508109	 0.5375382796	-0.521822
N	 1.0712990782	-3.4578903691	-0.643688539	-0.009664
N	 2.1625310279	-3.3787803594	-0.5472011189	 0.006632
O	 0.8606668699	-0.4444933073	 0.4658175544	-0.359409
H	 0.6910215464	 2.0621375446	 0.1431020016	 0.272621
H	-1.0109307031	 2.0099089727	-0.2300430677	 0.273206
H	-2.0114812212	-3.4337266298	-0.0283800227	 0.29416
14.9321	34.0119	39.3205	49.9971	69.0166	87.6398	137.1504	138.1253	420.7083	450.6388	525.6138	564.2492	593.9279	690.0676	781.0726	834.8215	859.5814	1104.1142	1304.2701	1418.4395	1605.4976	1811.31	2247.742	2434.826	3625.3889	3627.6234	3767.4192	14.933	34.0121	39.3209	49.9972	69.0166	87.6394	137.1506	138.125	420.7078	450.6386	525.6138	564.249	593.9278	690.0677	781.0726	834.8215	859.5811	1104.1142	1304.2701	1418.4395	1605.4976	1811.3102	2247.7426	2434.8261	3625.389	3627.6234	3767.4192
NC1=NC(=N)N=NO1	NC(=O)[N][C][NH].N#N	
InChI=1S/C2H3N5O/c3-1-5-2(4)8-7-6-1/h(H3,3,4,5)	InChI=1S/C2H3N3O.N2/c3-1-5-2(4)6;1-2/h3H,(H2,4,6);
