10
gdb 130794	1.72557	1.29584	0.80228	2.4033	53.32	-0.2803	-0.0248	0.2554	1294.5455	0.048642	-504.798851	-504.788612	-504.787668	-504.839551	29.378	
O	 0.9476844406	 0.4329396272	-0.6614006734	-0.219148
C	-0.0280725434	 1.0621017462	-0.013980767	 0.471799
O	-1.2017354117	 0.9845971523	 0.1354763187	-0.331434
N	-2.8273214048	 4.2990341172	-0.6962324778	 0.006856
N	-1.7687874202	 4.0062317222	-0.7135091685	-0.005941
C	 1.3664306142	 3.4631852097	-1.4907250435	 0.601739
O	 1.160359044	 4.1634088368	-2.3964716526	-0.268692
N	 1.7149129495	 2.8105918247	-0.5299204768	-0.366682
C	 1.2788851816	 1.694885319	 0.1643289611	-0.057566
H	 1.9010696303	 1.4478346946	 1.0169904099	 0.169068
15.769	32.1835	43.4502	46.9244	64.5089	90.6827	101.7558	263.5302	428.62	512.7657	597.5298	636.1665	658.3673	729.7188	899.2684	985.0932	1118.579	1186.6135	1380.9586	1544.8964	2012.9259	2378.2093	2435.0988	3187.7887	15.7678	32.1834	43.4499	46.9243	64.5086	90.6826	101.7557	263.5302	428.6199	512.7657	597.5299	636.1665	658.3674	729.7189	899.2684	985.0932	1118.579	1186.6134	1380.9585	1544.8963	2012.9259	2378.2092	2435.0988	3187.7887
O=C1ON=NC(=O)N=C1	O1C(=O)[C@@H]1N=C=O.N#N	
InChI=1S/C3HN3O3/c7-2-1-4-3(8)5-6-9-2/h1H	InChI=1S/C3HNO3.N2/c5-1-4-2-3(6)7-2;1-2/h2H;/t2-;/m1./s1
