9
gdb 21907	7.50111	1.39254	1.1745	2.7756	52.87	-0.2967	-0.0957	0.201	885.963	0.04963	-429.518512	-429.512429	-429.511485	-429.548924	21.505	
O	 0.1155505329	 1.3038016313	-0.083852165	-0.3921
C	 0.0660619218	-0.0202715765	-0.063728205	 0.43927
N	-0.0512273382	-0.7224409683	-1.1687220677	-0.160375
O	-0.0632674791	-2.037614723	-0.6950770532	-0.184612
C	 0.0478752116	-1.9633978276	 0.6339168352	 0.353021
N	 0.1325650869	-0.750745449	 1.0956622954	-0.373368
C	 0.0616863608	-3.1767923121	 1.3760448452	 0.287835
N	 0.0725637694	-4.1645563254	 1.9756632449	-0.299931
H	 0.2018574238	 1.6118786206	 0.8273512403	 0.33026
146.1097	162.4315	332.9689	408.7249	420.4798	484.349	557.908	591.9221	720.5258	767.3804	779.5819	945.0173	1043.4795	1074.2262	1207.9828	1295.1989	1429.2698	1582.2905	1656.8076	2370.9114	3807.2684
OC1=NOC(=N1)C#N	Oc1noc(n1)C#N	
InChI=1S/C3HN3O2/c4-1-2-5-3(7)6-8-2/h(H,6,7)	InChI=1S/C3HN3O2/c4-1-2-5-3(7)6-8-2/h(H,6,7)
