11
gdb 42168	2.39179	1.40309	0.93219	5.2038	67.11	-0.3142	-0.106	0.2082	1144.4799	0.062809	-414.386603	-414.377784	-414.376839	-414.421382	29.621	
O	 0.0920111364	-0.0080687507	 0.7102933349	-0.238282
C	 0.0112347723	 1.0914766948	 0.2356906491	 0.25965
C	 1.1268398014	 1.863878988	-0.2429877306	 0.254406
C	 2.0456337887	 2.5312758339	-0.6402594693	-0.359621
C	-1.3709987833	 1.8354391919	 0.1380535225	-0.408856
C	-1.5983584254	 2.3700878199	-1.2080026249	 0.306243
N	-1.75223511	 2.7930065372	-2.2708734314	-0.292268
C	-2.4714047657	 0.9747787919	 0.5776368252	 0.320268
N	-3.3464364473	 0.3150346616	 0.9372232575	-0.285799
H	 2.8655243253	 3.1097038991	-0.9949782132	 0.238756
H	-1.2991870624	 2.6891350923	 0.8278059602	 0.205502
29.0921	105.8752	136.4952	164.1411	190.0233	245.4331	377.2779	381.7734	450.9734	495.1591	579.5463	585.697	675.1725	687.2336	734.2622	847.1326	940.0078	1034.387	1105.1297	1212.1978	1298.0444	1808.422	2220.1659	2372.2481	2383.4733	3023.2423	3487.1485
O=C(C#C)C(C#N)C#N	O=C(C#C)C(C#N)C#N	
InChI=1S/C6H2N2O/c1-2-6(9)5(3-7)4-8/h1,5H	InChI=1S/C6H2N2O/c1-2-6(9)5(3-7)4-8/h1,5H
