10
gdb 21341	6.1289	1.32125	1.2104	3.327	52.36	-0.3429	-0.0929	0.25	912.5936	0.060309	-409.591188	-409.584735	-409.58379	-409.623002	21.793	
N	-0.0605935019	-1.1543493129	-0.2441963852	-0.281769
C	-0.0213763383	-0.0083425303	-0.1125744738	 0.272572
C	 0.0165850792	 1.4457487684	 0.0590955602	-0.422192
C	 1.411104206	 1.9898171829	 0.0579663964	 0.423541
N	 1.9793533203	 2.5633876708	 1.0778319684	-0.127237
O	 3.2035905739	 2.9119198366	 0.631482717	-0.130572
N	 3.3279530506	 2.5153062542	-0.7013711537	 0.062291
N	 2.2514448026	 1.9647979394	-1.0391918284	-0.184218
H	-0.5564958978	 1.911154269	-0.7505729216	 0.192059
H	-0.4633749846	 1.7133264219	 1.0044940206	 0.195525
42.9023	109.959	300.143	323.4733	373.35	482.9019	672.8325	678.7362	705.2637	809.1537	927.8157	950.4387	972.2209	1062.3757	1101.4286	1214.0807	1322.009	1341.4186	1447.8889	1487.2449	1599.0791	2376.3038	3058.6142	3113.1355
N#CCC1=NON=N1	N#CCc1nonn1	
InChI=1S/C3H2N4O/c4-2-1-3-5-7-8-6-3/h1H2	InChI=1S/C3H2N4O/c4-2-1-3-5-7-8-6-3/h1H2
