11
gdb 21500	5.38916	1.68924	1.28611	4.1427	53.25	-0.2798	-0.0698	0.21	845.4789	0.07341	-430.746293	-430.739665	-430.73872	-430.777603	23.26	
N	 0.3666627031	 0.5914847994	-1.0090564511	-0.528875
C	-0.091796865	 0.1926248319	 0.2026270182	 0.325843
O	 0.3871430671	 0.4795705567	 1.277184278	-0.335397
C	-1.3091724428	-0.6814904128	 0.0781419823	 0.37332
N	-1.9110386534	-1.0560411998	-1.0152082884	-0.326358
C	-2.9326601198	-1.8233021815	-0.5195246485	 0.038799
N	-2.9650584422	-1.9187277268	 0.7834567747	-0.094297
O	-1.8745882514	-1.1524228269	 1.18809847	-0.173235
H	 1.1799372662	 1.1825650368	-1.0477009244	 0.275802
H	-0.0973914065	 0.3030361502	-1.8545691065	 0.285537
H	-3.6663951154	-2.3197689372	-1.1371742743	 0.158861
69.5864	195.4631	197.7999	282.5874	393.1781	503.6144	566.1496	652.4304	665.6721	685.8575	820.8449	929.6639	931.8259	984.6324	1020.6547	1099.3029	1183.6817	1245.1933	1293.2448	1383.5679	1490.2566	1597.6474	1607.4186	1818.0376	3266.2378	3598.977	3739.6384
NC(=O)C1=NC=NO1	NC(=O)c1ncno1	
InChI=1S/C3H3N3O2/c4-2(7)3-5-1-6-8-3/h1H,(H2,4,7)	InChI=1S/C3H3N3O2/c4-2(7)3-5-1-6-8-3/h1H,(H2,4,7)
