11
gdb 133466	3.59488	1.20858	1.07402	2.8992	48.48	-0.2756	-0.0223	0.2533	1030.8765	0.063608	-583.077078	-583.070156	-583.069212	-583.109621	24.579	
F	-0.4511529883	 0.1891040006	-0.3246336626	-0.06523
C	-0.0182695755	 1.4022831708	 0.0359552238	 0.235386
F	 1.3009800133	 1.3102043106	 0.2368428857	-0.065248
F	-0.2221704273	 2.2378689948	-0.9960800951	-0.077825
C	-0.7291751369	 1.9066487784	 1.2473068496	 0.074221
C	-1.4825000581	 3.0245611943	 1.3677407754	-0.094242
O	-1.9299738891	 3.0805543876	 2.6516984283	-0.136868
C	-1.4117685505	 1.9748527005	 3.2402946136	 0.079762
N	-0.6916852292	 1.2385408166	 2.4626658277	-0.293539
H	-1.776655771	 3.8175833352	 0.7037758954	 0.176863
H	-1.6480515875	 1.8223446606	 4.2813431183	 0.16672
49.1312	145.5271	176.0035	371.5475	393.783	414.75	552.4416	584.3909	645.8493	734.6894	748.1892	816.7522	859.5096	935.2642	967.6985	1092.2673	1128.2477	1150.622	1197.2121	1200.4421	1249.9304	1350.3381	1368.3141	1558.2024	1636.1786	3283.8304	3309.6345
FC(F)(F)C1=COC=N1	FC(F)(F)c1cocn1	
InChI=1S/C4H2F3NO/c5-4(6,7)3-1-9-2-8-3/h1-2H	InChI=1S/C4H2F3NO/c5-4(6,7)3-1-9-2-8-3/h1-2H
