10
gdb 133474	3.65904	1.26077	1.1224	1.0671	45.36	-0.3242	-0.0616	0.2626	987.92	0.051293	-599.095775	-599.088883	-599.087939	-599.12935	23.677	
F	-0.2872925462	 0.1329736475	-0.2124085017	-0.059596
C	-0.0135710404	 1.417658911	 0.0276630775	 0.252066
F	 1.2997165357	 1.5705427443	 0.1129462735	-0.03911
F	-0.4693043688	 2.1363193651	-1.0013056223	-0.059578
C	-0.6769137135	 1.8628538925	 1.3112754022	 0.270349
N	-0.1119775592	 2.3324838072	 2.3754965635	-0.29382
C	-1.2072647194	 2.5500809189	 3.1800554655	 0.039745
N	-2.3574222548	 2.2374799055	 2.6493458632	-0.087252
O	-2.0044992416	 1.769807923	 1.3794336368	-0.188347
H	-1.1395378918	 2.9498897551	 4.1808795319	 0.165543
13.9607	145.8837	183.8418	369.5555	379.0682	406.359	551.8859	580.9281	658.9901	760.4632	782.3714	912.5891	931.8739	976.3515	1008.1115	1150.8386	1202.05	1205.1235	1245.8019	1265.6054	1361.0528	1513.5243	1638.6871	3269.9362
FC(F)(F)C1=NC=NO1	FC(F)(F)c1ncno1	
InChI=1S/C3HF3N2O/c4-3(5,6)2-7-1-8-9-2/h1H	InChI=1S/C3HF3N2O/c4-3(5,6)2-7-1-8-9-2/h1H
