10
gdb 21765	5.70581	2.42522	1.70185	2.7166	53.99	-0.2555	-0.0714	0.1841	659.6182	0.062712	-409.591574	-409.586557	-409.585612	-409.62063	19.1	
O	-0.0474768333	 1.3046754815	 0.0095251446	-0.233741
N	 1.3206826489	 1.7458403617	-0.0010543254	 0.010623
N	 2.0883881102	 0.7492907213	-0.0138917891	-0.057882
N	 1.3353052665	-0.3663229731	-0.0128739008	 0.01768
C	 1.4091856024	-1.7519953478	-0.0212430942	-0.140023
C	 0.0856716468	-2.1232143559	-0.01062743	-0.064877
N	-0.7989255817	-1.0432017095	 0.0037572088	-0.383372
C	 0.0120735131	-0.030872896	 0.0016002432	 0.549687
H	 2.3369548834	-2.2936785839	-0.0331075262	 0.1645
H	-0.2967224062	-3.1328075482	-0.0125391611	 0.137406
217.9195	342.7515	482.0683	604.3103	631.8194	692.8395	704.2946	722.7419	747.4421	796.2671	879.0762	947.4657	1023.173	1081.0237	1153.7722	1236.462	1283.4776	1376.5589	1433.9616	1458.3402	1503.5692	1635.5456	3257.4778	3315.0104
O1N=NN2C=CN=C12	o1nnn2ccnc12	
InChI=1S/C3H2N4O/c1-2-7-3(4-1)8-6-5-7/h1-2H	InChI=1S/C3H2N4O/c1-2-7-3(4-1)8-6-5-7/h1-2H
