9
gdb 23830	4.19693	2.03626	1.37105	2.3315	47.63	-0.2859	-0.1149	0.171	758.766	0.049502	-470.802514	-470.796833	-470.795888	-470.832762	20.214	
F	 0.045557718	 0.1088176618	 0.0027745545	-0.023635
C	-0.044103838	 1.4119225629	 0.0112350788	 0.410632
N	-1.2121453263	 1.9408265953	 0.029883169	-0.353368
C	-1.256656864	 3.3248761156	 0.0378263898	 0.486695
O	-2.2374686619	 4.0159130118	 0.0544972811	-0.339451
N	 0.0398664318	 3.917242132	 0.0230717578	-0.24356
N	 1.2004174118	 3.2894145887	 0.0038946949	 0.005398
N	 1.2007913655	 2.010150917	-0.0027826527	-0.246147
H	 0.1025956931	 4.928306265	 0.0274035869	 0.303435
125.3452	198.5563	396.3354	444.5355	544.236	564.2705	594.5654	736.2812	774.0446	776.2429	820.7188	968.1749	1016.9366	1154.0646	1207.8389	1374.8048	1394.8944	1525.7938	1654.8266	1867.3906	3589.0209
FC1=NC(=O)NN=N1	Fc1nc(=O)[nH]nn1	
InChI=1S/C2HFN4O/c3-1-4-2(8)6-7-5-1/h(H,4,5,6,8)	InChI=1S/C2HFN4O/c3-1-4-2(8)6-7-5-1/h(H,4,5,6,8)
