8
gdb 23832	4.22229	2.0445	1.37749	2.0358	44.2	-0.3096	-0.1434	0.1662	745.0863	0.035271	-490.645791	-490.639942	-490.638997	-490.676498	20.219	
F	 0.0279578685	 0.092501308	 0.0027693	-0.009476
C	-0.0570225553	 1.3895523297	 0.0111733776	 0.424324
N	-1.1953804698	 1.951216206	 0.0297556055	-0.348857
C	-1.1962081185	 3.3393512834	 0.0375744818	 0.49926
O	-2.1494996514	 4.0436055523	 0.0544657809	-0.287408
O	 0.0808507725	 3.9584560711	 0.0237644413	-0.227998
N	 1.2588948718	 3.2312734613	 0.003729437	 0.118525
N	 1.2065999422	 1.987518198	-0.002554574	-0.16837
75.8674	182.3448	396.177	431.478	513.039	542.6869	575.9949	739.1525	759.4141	759.4996	805.8985	937.1324	1026.2714	1175.1613	1368.0385	1561.0066	1711.5066	1921.7079
FC1=NC(=O)ON=N1	Fc1nc(=O)onn1	
InChI=1S/C2FN3O2/c3-1-4-2(7)8-6-5-1	InChI=1S/C2FN3O2/c3-1-4-2(7)8-6-5-1
