11
gdb 130842	2.33056	1.59897	0.94833	1.5747	67.18	-0.2978	-0.1186	0.1792	1096.1075	0.065891	-451.552258	-451.54504	-451.544096	-451.584614	25.065	
O	 0.0148322557	-0.0455764743	-0.0018780007	-0.229848
C	 0.0008216499	 1.1580667005	 0.0087840435	 0.073871
C	 1.2212140883	 1.9909526003	 0.0026245457	 0.272424
C	 1.3798212383	 3.3577067206	 0.0127808075	-0.007667
C	 2.7956667385	 3.5244230795	-0.001380796	-0.027272
N	 3.4125908323	 2.3713881164	-0.0181057727	-0.097098
O	 2.4214979843	 1.4043780065	-0.0156467187	-0.180525
C	 0.3757668277	 4.3533243819	 0.0324722734	 0.214679
N	-0.4403133257	 5.1740769665	 0.0485672	-0.319865
H	-0.9335341924	 1.7524857144	 0.0242131386	 0.12601
H	 3.3643868632	 4.4424016176	 0.0003327394	 0.175292
116.6311	123.5999	176.011	219.3205	266.9833	441.4978	515.475	556.8168	614.7368	647.3839	708.141	775.1274	917.7912	951.583	959.4174	1022.5701	1135.8577	1200.1112	1283.1261	1402.8623	1413.3223	1486.3653	1615.707	1804.2363	2354.7958	2950.0617	3263.3448
O=CC1=C(C=NO1)C#N	O=Cc1c(cno1)C#N	
InChI=1S/C5H2N2O2/c6-1-4-2-7-9-5(4)3-8/h2-3H	InChI=1S/C5H2N2O2/c6-1-4-2-7-9-5(4)3-8/h2-3H
