10
gdb 8723	5.44049	1.19849	0.98213	0.0025	49.13	-0.2554	-0.1571	0.0983	1045.9311	0.05574	-454.41244	-454.404209	-454.403265	-454.447919	25.564	
O	-0.0432087148	-0.0362826429	 0.0018228185	-0.197486
C	-0.0441202031	 1.16349422	 0.0071468867	 0.087955
C	 1.2952534275	 1.943856058	-0.000509476	 0.204204
O	 2.3592358254	 1.3778329722	-0.0122466643	-0.233313
C	 1.2129436735	 3.4758423347	 0.0089690164	 0.204203
O	 0.1489671267	 4.0418597899	 0.0215108098	-0.233313
C	 2.5523142816	 4.2562112755	 0.0010103511	 0.087955
O	 2.5514041519	 5.4559833981	 0.0071156734	-0.197485
H	-0.9644975124	 1.772844809	 0.0176063504	 0.13864
H	 3.4726807336	 3.6468656056	-0.010582716	 0.13864
14.2087	55.9058	74.7433	157.6255	276.4117	328.078	334.3902	363.8831	510.7004	610.1128	807.7296	849.2634	865.2695	949.668	1031.7103	1203.6962	1392.5881	1396.9399	1798.9146	1800.7463	1829.8281	1830.9096	2991.6635	2992.0754
O=CC(=O)C(=O)C=O	O=CC(=O)C(=O)C=O	
InChI=1S/C4H2O4/c5-1-3(7)4(8)2-6/h1-2H	InChI=1S/C4H2O4/c5-1-3(7)4(8)2-6/h1-2H
