11
gdb 130777	3.06313	1.57445	1.20207	2.7208	60.46	-0.2927	-0.1212	0.1715	949.4688	0.064365	-488.657043	-488.649887	-488.648942	-488.689287	25.444	
O	 0.131511287	 0.3635893848	 0.9849307611	-0.278342
C	 0.0149362918	 1.1864480624	 0.1240908944	 0.412397
O	-1.2423736026	 1.621339682	-0.2078028784	-0.246823
N	-1.6056122503	 2.3442798465	-1.3801549183	-0.026446
C	-0.8967579703	 3.3514440722	-1.6962977895	-0.031066
C	 0.326332457	 3.86003593	-0.9735517338	 0.363331
O	 0.3872298073	 4.9776609095	-0.5392199852	-0.276888
N	 1.39054262	 2.9482158917	-0.9597407618	-0.190219
C	 1.2275542405	 1.7545873396	-0.5619599087	-0.079513
H	-1.2690951276	 3.9216394432	-2.5446959019	 0.178997
H	 2.0635041872	 1.056812668	-0.6082717678	 0.174572
78.9829	98.4948	251.3258	281.8095	347.6224	432.1377	458.3946	551.3203	630.0747	663.2536	713.3301	781.4122	823.9102	890.725	909.6564	932.2928	971.7281	1166.2331	1208.2268	1298.4704	1379.9998	1680.1788	1727.5314	1826.0202	1833.1507	3146.0308	3170.5072
O=C1ON=CC(=O)N=C1	O=c1oncc(=O)nc1	
InChI=1S/C4H2N2O3/c7-3-1-6-9-4(8)2-5-3/h1-2H	InChI=1S/C4H2N2O3/c7-3-1-6-9-4(8)2-5-3/h1-2H
