10
gdb 23963	2.08322	1.90558	0.99522	4.9567	67.73	-0.2963	-0.1023	0.194	1042.9018	0.055825	-430.511787	-430.504929	-430.503985	-430.543663	23.988	
N	 0.1786798176	-1.150222244	-0.0059672448	-0.316178
C	 0.0750249415	 0.0026926595	 0.0018397478	 0.261483
C	-0.0721336369	 1.4030257118	 0.0115211377	 0.200222
C	-1.160939325	 2.237708847	 0.0315398775	 0.088825
N	-0.7207372926	 3.5518986979	 0.032364454	-0.287571
C	 0.5673729906	 3.4530221706	 0.013577218	 0.087525
O	 1.04258521	 2.1882581769	 0.0000491052	-0.160137
C	-2.5332650229	 1.8799811898	 0.0490773825	 0.253246
N	-3.6486455327	 1.5751469699	 0.063239501	-0.3163
H	 1.2992722505	 4.2453857506	 0.007493461	 0.188885
108.8296	160.3373	192.9089	214.3719	463.2192	488.7752	521.8716	537.793	639.6146	656.4569	660.3861	772.8452	875.1647	955.6376	1086.0639	1138.701	1231.4062	1298.1055	1360.6351	1541.1201	1597.4311	2351.7411	2365.2465	3285.721
N#CC1=C(N=CO1)C#N	N#Cc1c(nco1)C#N	
InChI=1S/C5HN3O/c6-1-4-5(2-7)9-3-8-4/h3H	InChI=1S/C5HN3O/c6-1-4-5(2-7)9-3-8-4/h3H
