11
gdb 133359	3.2456	1.48019	1.01657	6.6606	57.53	-0.2787	-0.0871	0.1916	1018.263	0.064829	-529.974465	-529.967152	-529.966208	-530.006515	26.857	
N	 0.0164550769	 1.3291493843	 0.0076192035	-0.549367
C	-0.0187591085	-0.0118145939	 0.0006826356	 0.330582
N	-1.1406495458	-0.666651678	 0.0038935372	-0.405696
C	-1.1103852223	-2.0393188121	-0.0036121461	 0.470917
O	-2.0514375878	-2.771449706	-0.0019285131	-0.322672
O	 0.1662760438	-2.692806633	-0.0147351664	-0.257875
N	 1.3448074389	-1.99694312	-0.0180641086	-0.101106
C	 1.2459864056	-0.731189415	-0.01071675	 0.31188
F	 2.365058392	-0.0138753677	-0.0135768759	-0.055927
H	 0.8920399	 1.8219059373	 0.0050686746	 0.288893
H	-0.852278503	 1.8389372341	 0.0155672991	 0.29037
80.6223	183.7981	278.4056	297.6277	377.701	385.7563	400.4404	483.2581	541.8881	594.7778	612.7267	709.2923	758.8901	781.6532	784.7738	822.88	1016.878	1091.7495	1235.177	1310.7966	1500.6528	1606.4906	1647.4968	1708.0374	1889.6768	3608.2571	3747.0557
NC1=NC(=O)ON=C1F	Nc1nc(=O)onc1F	
InChI=1S/C3H2FN3O2/c4-1-2(5)6-3(8)9-7-1/h(H2,5,6,8)	InChI=1S/C3H2FN3O2/c4-1-2(5)6-3(8)9-7-1/h(H2,5,6,8)
