10
gdb 21323	6.35422	1.61177	1.28566	1.1057	61.26	-0.2694	-0.1184	0.151	831.6792	0.062463	-372.511464	-372.50558	-372.504636	-372.541724	20.753	
N	-0.0174918766	-1.1563229285	-0.0033580212	-0.296157
C	 0.0181177437	-0.0007742521	 0.0024990111	 0.252435
C	 0.0029814894	 1.4369875919	 0.010568285	 0.227115
C	-1.2107990756	 2.1370339114	 0.0306480573	-0.006995
N	-1.2387909205	 3.4657744331	 0.0382892238	-0.157093
N	-0.0861158595	 4.1277685624	 0.0264756558	-0.161281
C	 1.0453150544	 3.4190619091	 0.0074615975	 0.106392
N	 1.1623932354	 2.0897355861	-0.0013875641	-0.281273
H	-2.1678611344	 1.6267925149	 0.0406706145	 0.159881
H	 1.9639618136	 3.9973805015	-0.0017087397	 0.156976
133.421	166.4782	323.5925	379.9038	484.974	567.3327	606.5896	683.3191	822.8989	837.5854	948.5474	1001.155	1028.8428	1072.0153	1143.0598	1250.8204	1285.4034	1334.2815	1477.1677	1540.5355	1576.6848	2356.8905	3195.6601	3200.8196
N#CC1=CN=NC=N1	N#Cc1cnncn1	
InChI=1S/C4H2N4/c5-1-4-2-7-8-3-6-4/h2-3H	InChI=1S/C4H2N4/c5-1-4-2-7-8-3-6-4/h2-3H
