11
gdb 21817	3.79752	2.06232	1.3365	5.0597	54.52	-0.2564	-0.0423	0.214	812.5647	0.073764	-430.773927	-430.767575	-430.766631	-430.804692	22.623	
O	-0.0428641434	-0.0504839148	-0.0006299626	-0.269177
C	 0.0071769774	 1.1464884435	 0.0077542935	 0.183982
N	 1.192986964	 1.8889305011	-0.0001258519	-0.134751
N	 2.45165138	 1.3069406971	-0.0183752235	-0.206335
C	 3.2610764398	 2.3126304322	-0.0201680249	 0.090863
N	 2.6151534278	 3.5250364422	-0.004181523	-0.377388
C	 1.2407900561	 3.297324476	 0.0095777719	 0.516158
O	 0.3327285959	 4.0909568021	 0.0254624059	-0.397831
H	-0.8583389097	 1.8283451271	 0.0220944319	 0.1342
H	 4.3359745426	 2.2161816967	-0.0328981182	 0.170061
H	 3.0225498095	 4.4446027369	-0.001994449	 0.290218
125.1375	210.9006	219.7491	297.4376	400.1799	495.9014	614.0772	654.9147	706.1973	757.2983	843.1305	873.3189	931.1684	1040.6591	1098.9674	1104.8402	1197.3342	1312.9524	1348.61	1417.9201	1425.8207	1630.0386	1837.2183	1864.5498	3023.7437	3265.2578	3681.2733
O=CN1N=CNC1=O	O=Cn1nc[nH]c1=O	
InChI=1S/C3H3N3O2/c7-2-6-3(8)4-1-5-6/h1-2H,(H,4,5,8)	InChI=1S/C3H3N3O2/c7-2-6-3(8)4-1-5-6/h1-2H,(H,4,5,8)
