11
gdb 130545	3.6847	1.31728	0.97037	2.1199	65.95	-0.296	-0.112	0.184	1086.9676	0.064977	-451.506481	-451.499135	-451.498191	-451.539274	25.543	
O	 0.0042807522	-0.0577902238	 0.0030713643	-0.25052
C	-0.0376084556	 1.1503640122	 0.0073795446	 0.136148
C	 1.1398243855	 1.9878645001	 0.0016704033	 0.29954
C	 2.1366951521	 2.6611467369	-0.0032957407	-0.409318
C	-1.3494711366	 1.8701881862	 0.0189453392	 0.375571
N	-2.5414058976	 1.3493618897	 0.0258094021	-0.291911
C	-3.32982256	 2.4670108603	 0.0348504548	 0.038986
N	-2.6823118502	 3.6056590605	 0.0338601244	-0.095503
O	-1.3512240365	 3.2117131885	 0.0231293774	-0.195084
H	 3.0178590174	 3.2566867672	-0.0077867493	 0.229556
H	-4.4094878605	 2.4370337522	 0.04245238	 0.162533
53.0434	118.0766	177.8379	243.9727	273.2714	435.2908	494.8476	648.9506	665.8009	672.0336	678.0335	724.6546	818.5625	934.3794	935.6211	978.6903	989.3575	1104.5218	1198.272	1256.6894	1307.305	1469.714	1599.8822	1763.0556	2221.4874	3266.5015	3491.6725
O=C(C#C)C1=NC=NO1	O=C(C#C)c1ncno1	
InChI=1S/C5H2N2O2/c1-2-4(8)5-6-3-7-9-5/h1,3H	InChI=1S/C5H2N2O2/c1-2-4(8)5-6-3-7-9-5/h1,3H
