11
gdb 133621	2.91339	1.06847	1.05209	1.7398	37.56	-0.3806	0.0815	0.462	1075.5213	0.058136	-714.568061	-714.560153	-714.559209	-714.602138	27.742	
F	 0.0050047185	 0.0679721175	-0.1201376414	-0.069367
C	-0.0261072922	 1.4011204944	-0.0205173977	 0.281261
F	 1.2292907204	 1.8503104231	-0.1223617279	-0.06936
F	-0.7151526759	 1.8731203938	-1.0695347288	-0.07252
C	-0.6913309301	 1.8596586494	 1.2679437857	-0.471313
C	-0.0017665914	 1.3873161483	 2.5384986296	 0.281261
F	 1.2555010424	 1.8352196234	 2.6211300742	-0.069362
F	-0.6704934934	 1.8481897431	 3.6054611131	-0.072522
F	 0.0307837415	 0.0531781831	 2.6232836129	-0.069362
H	-0.7135092253	 2.9512047676	 1.2740385314	 0.165641
H	-1.7182057645	 1.4888894263	 1.2757166789	 0.165643
26.816	125.2797	164.6259	294.2882	296.5862	329.0219	397.6517	520.409	533.3403	539.2306	544.5477	647.792	713.4467	854.0819	881.4516	933.1592	1069.5805	1133.2254	1238.1995	1243.1629	1266.7506	1318.9134	1330.585	1411.6208	1460.5239	3094.1264	3150.4114
FC(F)(F)CC(F)(F)F	FC(F)(F)CC(F)(F)F	
InChI=1S/C3H2F6/c4-2(5,6)1-3(7,8)9/h1H2	InChI=1S/C3H2F6/c4-2(5,6)1-3(7,8)9/h1H2
