9
gdb 23850	5.9301	1.66109	1.29761	2.2243	48.11	-0.2879	-0.1279	0.16	795.2733	0.047864	-474.603688	-474.597871	-474.596927	-474.634054	20.816	
F	 0.0747986684	 0.0444502601	-0.2552654413	-0.034254
C	-0.0286974514	 1.3297113048	-0.0171148787	 0.411988
N	-1.222418927	 1.7941525723	 0.0605494476	-0.130355
O	-1.3094196913	 3.1600192204	 0.3142566542	-0.239096
C	-0.195130993	 3.9543334389	 0.4706045484	 0.439024
O	-0.3192329918	 5.1259987478	 0.6874690761	-0.306583
C	 1.0884329535	 3.2361352663	 0.3462767842	-0.079992
N	 1.1756733805	 1.9771156907	 0.112487235	-0.238121
H	 1.992512492	 3.8293829987	 0.4634015146	 0.177391
89.5105	321.8507	352.2429	390.4726	463.7615	534.8669	583.8654	620.9295	786.6348	796.4921	822.8237	936.7641	980.3581	1069.529	1207.1956	1339.8668	1407.413	1598.5365	1682.8864	1849.7485	3174.319
FC1=NOC(=O)C=N1	Fc1noc(=O)cn1	
InChI=1S/C3HFN2O2/c4-3-5-1-2(7)8-6-3/h1H	InChI=1S/C3HFN2O2/c4-3-5-1-2(7)8-6-3/h1H
