10
gdb 24812	3.89816	1.29777	0.97363	4.135	61.32	-0.2976	-0.1162	0.1814	1059.9773	0.054745	-467.641679	-467.634747	-467.633803	-467.674471	23.83	
O	-0.0447023428	-0.036832274	 0.0040599927	-0.283308
C	-0.0382601016	 1.158673049	 0.0096849709	 0.411036
N	-1.2428923539	 1.9167256847	 0.0303358145	-0.272034
C	-1.1573965201	 3.1782860792	 0.0354199142	 0.131207
O	-0.0009317704	 3.9093951414	 0.0227994005	-0.192853
C	 1.1337071013	 3.1527476606	 0.0028381877	 0.322721
N	 1.1940152141	 1.8864464582	-0.0041905348	-0.315223
C	 2.3187196175	 3.9737279502	-0.0095077288	 0.304217
N	 3.2684706734	 4.6305738226	-0.0193979085	-0.286301
H	-2.0210514475	 3.8364849381	 0.0508775115	 0.180538
34.0528	129.0331	157.2656	374.5803	430.0377	461.5896	498.8147	554.7375	610.6931	731.9232	768.9918	829.2337	878.5031	947.0537	980.6274	992.8589	1191.4797	1270.4331	1402.7936	1631.9782	1730.2066	1852.5049	2372.1687	3198.6794
O=C1N=COC(=N1)C#N	O=c1ncoc(n1)C#N	
InChI=1S/C4HN3O2/c5-1-3-7-4(8)6-2-9-3/h2H	InChI=1S/C4HN3O2/c5-1-3-7-4(8)6-2-9-3/h2H
