11
gdb 23959	2.06663	1.90612	0.99157	2.6065	74.	-0.2618	-0.0774	0.1844	1066.834	0.066237	-414.413751	-414.406543	-414.405599	-414.445809	26.01	
C	 0.1350086663	-1.2090405021	-0.005777069	-0.381119
C	 0.07097199	-0.008172715	 0.0015855648	 0.248483
C	-0.0157032333	 1.3985206585	 0.0105494496	 0.046436
C	-1.1456692237	 2.1806329061	 0.0312375066	 0.180828
O	-0.7493970335	 3.4910455748	 0.0326493687	-0.167524
C	 0.5978294498	 3.4296675365	 0.012754689	 0.078766
N	 1.0951421335	 2.2375506342	-0.0009984592	-0.298239
C	-2.5203006418	 1.882805423	 0.0495684674	 0.23951
N	-3.6478838368	 1.6179549446	 0.0644960166	-0.333075
H	 0.19030097	-2.2700808293	-0.0121191134	 0.210334
H	 1.1237932296	 4.3717324987	 0.0102682688	 0.175599
105.6964	157.9765	185.6482	206.3655	435.874	468.626	522.7476	524.9264	627.1131	636.3122	656.7466	658.6655	683.7344	774.092	869.9278	955.5434	1076.9487	1148.4034	1215.7847	1299.9795	1360.054	1542.4744	1590.8216	2245.0337	2345.4764	3280.2756	3499.2724
C#CC1=C(OC=N1)C#N	C#Cc1c(ocn1)C#N	
InChI=1S/C6H2N2O/c1-2-5-6(3-7)9-4-8-5/h1,4H	InChI=1S/C6H2N2O/c1-2-5-6(3-7)9-4-8-5/h1,4H
