11
gdb 130297	2.11176	2.00678	1.03057	5.4788	66.32	-0.2424	-0.1001	0.1423	1020.548	0.065784	-484.84275	-484.835303	-484.834359	-484.874944	26.843	
N	 0.2614172849	 1.2492804473	 0.2012892468	-0.590719
C	 0.0697251944	-0.105100377	 0.0447394395	 0.3737
N	-1.1054522454	-0.6539989199	 0.006598036	-0.191447
O	-0.9226815637	-2.0657320411	-0.0427346614	-0.237151
C	 0.4059658155	-2.4085212333	-0.0670846383	 0.479421
C	 1.1006904609	-1.1107837155	-0.0068404459	 0.07868
N	 2.3890280539	-0.9591710122	 0.0544994546	 0.092832
N	 3.5131099633	-0.855728356	 0.1071583868	-0.189557
O	 0.8133661449	-3.5324908448	-0.1207996476	-0.355788
H	 0.9950845415	 1.6496986398	-0.3675914082	 0.26473
H	-0.6026943104	 1.7716070829	 0.1254485379	 0.275299
117.3737	131.2881	193.0707	285.9945	335.2613	358.4541	453.9581	540.9861	547.7279	598.5876	632.4258	691.6591	696.232	759.6162	771.2377	925.5383	1081.2918	1107.4979	1174.2132	1381.3628	1519.7151	1615.4994	1663.7574	1868.374	2235.8134	3544.8872	3644.1161
NC1=NOC2=C1N=NO2	NC1=NOC(=O)[C]1[N][N]	
InChI=1S/C3H2N4O2/c4-2-1-3(8-6-2)9-7-5-1/h(H2,4,6)	InChI=1S/C3H2N4O2/c4-2-1(6-5)3(8)9-7-2/h(H2,4,7)
