10
gdb 133403	2.02061	0.99273	0.71931	1.013	51.26	-0.2559	-0.0877	0.1682	1413.9003	0.046918	-549.898227	-549.887514	-549.88657	-549.940209	31.09	
O	-0.1597540313	 1.4878043714	-0.1530159585	-0.375216
C	-0.2232086034	 0.1942044765	 0.2100948933	 0.376108
C	-1.5507188891	-0.3688735727	 0.0251049771	-0.149059
F	-2.5823268929	 0.3427374356	-0.4577733746	-0.062132
C	-1.7418840256	-1.6509103711	 0.3547851479	 0.454063
O	-1.9256808541	-2.75512229	 0.6367686279	-0.174048
N	 1.2697648064	-3.2144725339	-0.7160313708	-0.001744
N	 2.3513512603	-3.341554994	-0.5715670092	-0.001478
O	 0.7105319011	-0.4448265416	 0.6459309712	-0.37784
H	 0.7543222185	 1.7664514297	 0.0076717857	 0.311346
9.7087	18.0682	34.7445	43.467	76.054	101.244	139.7602	248.0774	276.4268	473.3631	488.9352	509.3721	573.5933	679.8189	759.6601	760.1011	1129.5553	1235.0463	1376.9052	1454.6024	1776.9885	2238.7318	2432.8655	3757.5503	9.7088	18.0689	34.7448	43.4672	76.0541	101.2439	139.7602	248.0774	276.4268	473.3631	488.9352	509.3721	573.593	679.8189	759.6602	760.1011	1129.5552	1235.0464	1376.9051	1454.6026	1776.9887	2238.7317	2432.8655	3757.55
OC1=C(F)C(=O)N=NO1	OC(=O)[C](F)[C][O].N#N	
InChI=1S/C3HFN2O3/c4-1-2(7)5-6-9-3(1)8/h8H	InChI=1S/C3HFO3.N2/c4-2(1-5)3(6)7;1-2/h(H,6,7);
