11
gdb 130781	2.48919	1.94846	1.32973	5.0736	60.21	-0.2816	-0.119	0.1626	895.7156	0.064465	-488.656895	-488.649763	-488.648818	-488.688962	25.315	
O	-0.0460103147	 0.4197882937	 1.2063882596	-0.264313
C	-0.0323795163	 1.1611564545	 0.2796645456	 0.381534
O	-1.222730143	 1.4330555297	-0.3845101914	-0.243755
N	-1.3650992626	 2.1911300547	-1.5515314641	-0.032807
C	-0.7242313087	 3.2958532096	-1.6682256954	 0.030385
C	 0.2677120976	 3.8982198604	-0.7632343989	-0.010782
N	 1.1633953723	 3.2520821364	-0.1279347705	-0.188333
C	 1.2204439352	 1.8602079769	-0.2737794788	 0.269464
O	 2.1623097158	 1.2520570774	-0.6954418441	-0.263512
H	-1.0050973584	 3.8542546537	-2.5595321752	 0.163267
H	 0.2394634928	 4.984095903	-0.6596626869	 0.158852
84.7101	117.4405	235.292	296.9915	312.2262	394.2749	469.3622	567.063	602.0689	706.1165	740.1314	828.9731	865.6547	894.3735	945.0334	967.8658	989.4549	1019.8309	1176.4218	1341.0436	1399.0571	1628.9271	1707.931	1835.9609	1886.3762	3124.7467	3159.7543
O=C1ON=CC=NC1=O	O=c1onccnc1=O	
InChI=1S/C4H2N2O3/c7-3-4(8)9-6-2-1-5-3/h1-2H	InChI=1S/C4H2N2O3/c7-3-4(8)9-6-2-1-5-3/h1-2H
