10
gdb 131996	4.78179	1.16215	0.93493	2.8784	53.77	-0.3053	-0.1273	0.178	1095.2684	0.053433	-541.774447	-541.767537	-541.766593	-541.806833	24.118	
O	 0.1194522261	 1.271982909	-0.0717220365	-0.388497
C	 0.0745975232	-0.0503041359	-0.0485828328	 0.476463
N	-0.0180049743	-0.7546952717	-1.1570400815	-0.167921
O	-0.0331843313	-2.0746012684	-0.6749057563	-0.162907
C	 0.0512703056	-1.9764212773	 0.6376445934	 0.562713
N	 0.1215432061	-0.779980078	 1.1152459738	-0.370325
N	 0.0562425778	-3.2249423235	 1.4087728165	 0.353221
O	-0.0200434099	-4.2541822126	 0.7608103787	-0.319771
O	 0.1360578195	-3.1054809468	 2.6164161513	-0.315655
H	 0.1860587971	 1.5867244754	 0.8389853334	 0.332681
46.161	169.1662	198.696	352.9001	391.4656	411.4468	440.2895	569.7948	623.8243	747.2052	757.8604	801.0681	845.1813	930.3086	1041.6666	1057.9213	1205.3393	1312.0809	1385.8436	1425.5171	1589.1664	1669.8522	1675.0966	3806.4307
OC1=NOC(=N1)N(=O)=O	Oc1noc(n1)N(=O)=O	
InChI=1S/C2HN3O4/c6-1-3-2(5(7)8)9-4-1/h(H,4,6)	InChI=1S/C2HN3O4/c6-1-3-2(5(7)8)9-4-1/h(H,4,6)
