11
gdb 133384	3.12624	1.50662	1.0177	4.534	57.33	-0.2548	-0.0974	0.1574	1025.9924	0.065096	-529.966636	-529.959418	-529.958474	-529.99854	26.607	
N	 0.0772704473	 1.4073168569	 0.0602399161	-0.545506
C	-0.0226718788	 0.0470132103	-0.0351251789	 0.476674
N	-1.2054981302	-0.4899180253	-0.0603499827	-0.175352
O	-1.2373108442	-1.8822624829	-0.2788832289	-0.24036
C	-0.1250724602	-2.6434190542	-0.4130663979	 0.355678
O	-0.1852716051	-3.8255972416	-0.6023034155	-0.314374
C	 1.1339607562	-1.8596315504	-0.2939161548	 0.216709
F	 2.2293204658	-2.5669626668	-0.3749351814	-0.010522
N	 1.2035105776	-0.6060898462	-0.1242716058	-0.316722
H	 0.9382661131	 1.7531364767	 0.4527345733	 0.276487
H	-0.7637963215	 1.8981761634	 0.3211566665	 0.277288
87.2518	204.2229	280.4352	315.2651	343.5358	426.055	434.4583	494.6882	524.4257	532.3026	614.8253	684.0771	723.6892	798.6244	828.2986	966.3143	1054.4624	1135.09	1184.851	1368.0986	1450.4772	1594.5792	1645.0349	1729.5625	1846.0067	3593.2014	3713.7926
NC1=NOC(=O)C(F)=N1	Nc1noc(=O)c(F)n1	
InChI=1S/C3H2FN3O2/c4-1-2(8)9-7-3(5)6-1/h(H2,5,7)	InChI=1S/C3H2FN3O2/c4-1-2(8)9-7-3(5)6-1/h(H2,5,7)
