11
gdb 23878	3.37544	1.60465	1.38614	1.8053	40.7	-0.299	-0.0617	0.2373	844.2647	0.066602	-566.046119	-566.038572	-566.037627	-566.078624	26.135	
O	 0.0237297028	 1.4562630942	 0.1067927755	-0.416252
C	 0.027940861	 0.0699442461	 0.0320556572	-0.085378
C	 0.7235592016	-0.4095288132	-1.2400530026	 0.132712
O	 1.1471791662	 0.3880954169	-2.0366377105	-0.245422
C	 0.725240687	-0.537812488	 1.2575501468	 0.260885
F	 0.1599069093	-0.1330826754	 2.3912755691	-0.056522
F	 0.6430499827	-1.8802009171	 1.2033896568	-0.081506
F	 2.0200057069	-0.2059144905	 1.290959781	-0.071533
H	 0.5205163616	 1.7632417866	-0.6696130429	 0.305796
H	-0.9962556762	-0.3389942589	 0.03209903	 0.128456
H	 0.8067094771	-1.5014256406	-1.3860388205	 0.128764
70.9396	114.5931	199.2579	259.3898	305.9816	363.1932	403.9342	459.238	526.7085	568.8288	678.2985	751.9195	822.0327	909.7516	1007.6187	1162.077	1180.9564	1211.914	1266.385	1298.5942	1365.9615	1393.8539	1441.188	1823.4784	2978.793	2991.2585	3678.5476
OC(C=O)C(F)(F)F	O[C@@H](C=O)C(F)(F)F	
InChI=1S/C3H3F3O2/c4-3(5,6)2(8)1-7/h1-2,8H	InChI=1S/C3H3F3O2/c4-3(5,6)2(8)1-7/h1-2,8H/t2-/m0/s1
