11
gdb 129274	7.06599	0.89497	0.80249	1.6475	56.7	-0.2708	-0.0557	0.2151	1283.1088	0.064284	-525.812522	-525.805135	-525.804191	-525.845394	25.509	
N	-0.2422863063	 1.2219002439	 0.2286659999	-0.56031
C	-0.0202015383	 0.010549851	 0.0313179135	 0.530253
O	 1.1495010096	-0.6444999574	-0.236971429	-0.242373
N	 0.8716347497	-2.0344936096	-0.4120117391	-0.231043
C	-0.390968145	-2.1009099346	-0.2064650622	 0.529285
O	-1.1605771468	-3.1830981716	-0.239035739	-0.220755
C	-0.5703945582	-4.4124618515	 0.0951470477	 0.18144
O	-1.1701908607	-5.4167302134	-0.0608625602	-0.208533
O	-1.0207754688	-0.9475464219	 0.0603647186	-0.192893
H	 0.608668979	 1.7745035009	 0.1656790182	 0.255836
H	 0.4412260659	-4.2786059659	 0.5011536017	 0.159092
61.353	115.4706	159.1261	195.7686	351.789	374.8745	474.1727	568.0928	688.1172	732.2629	748.8581	785.829	830.7402	914.0615	940.522	973.662	1027.9908	1040.2221	1090.0866	1243.4913	1391.4337	1438.0637	1699.6888	1835.3957	1912.4098	3069.8664	3554.0437
N=C1ON=C(OC=O)O1	[NH][C@H]1ON=C(OC=O)O1	
InChI=1S/C3H2N2O4/c4-2-8-3(5-9-2)7-1-6/h1,4H	InChI=1S/C3H3N2O4/c4-2-8-3(5-9-2)7-1-6/h1-2,4H/t2-/m1/s1
