11
gdb 21973	5.50632	1.70912	1.30428	7.232	56.54	-0.2664	-0.0704	0.1961	830.6711	0.07413	-430.671616	-430.665586	-430.664642	-430.70232	21.646	
O	-0.0757941929	-0.0034276189	 0.0038085479	-0.340202
N	-0.0466137898	 1.2152970582	 0.0069822437	 0.353168
O	 0.9687826246	 1.9106290375	 0.0021740073	-0.386917
C	-1.3014035137	 1.9315565695	 0.017297669	 0.358426
C	-1.4231265985	 3.2987299335	 0.0217363991	-0.119836
N	-2.7738650634	 3.5058969795	 0.0312991963	-0.237837
C	-3.3833911057	 2.2774768575	 0.0321800745	 0.030314
N	-2.5091352215	 1.3027231444	 0.0237062531	-0.271442
H	-0.6937493674	 4.0884720435	 0.0189489674	 0.176913
H	-3.2330281412	 4.4026874514	 0.0367169255	 0.283883
H	-4.4570087306	 2.1667697641	 0.0390911362	 0.15353
79.0152	220.061	234.4535	441.8625	545.538	577.2333	643.376	681.2408	769.504	811.2525	836.3071	851.0913	943.4285	982.806	1084.8133	1122.5602	1242.1944	1290.7676	1376.2257	1413.6556	1432.3229	1529.5919	1566.5672	1639.8799	3261.6121	3308.6715	3653.4366
O=N(=O)C1=CNC=N1	O=N(=O)c1c[nH]cn1	
InChI=1S/C3H3N3O2/c7-6(8)3-1-4-2-5-3/h1-2H,(H,4,5)	InChI=1S/C3H3N3O2/c7-6(8)3-1-4-2-5-3/h1-2H,(H,4,5)
