10
gdb 23982	6.28036	0.95263	0.82716	3.659	69.1	-0.2971	-0.0931	0.204	1225.7175	0.055568	-430.508904	-430.50202	-430.501076	-430.540729	24.125	
N	 0.1169967878	-1.1150973286	-0.0054761308	-0.301942
C	 0.0172149951	 0.0365527748	 0.0024733271	 0.275204
C	-0.0958252313	 1.4506502259	 0.0121133741	 0.307186
N	-1.1770295939	 2.1643618572	 0.0308897105	-0.31835
C	-0.7156906814	 3.4718308308	 0.0321128665	 0.144782
C	 0.6503365575	 3.4616190944	 0.013858324	-0.073996
O	 1.0584802279	 2.1768858098	 0.0008392391	-0.145367
C	-1.5772205992	 4.6002890992	 0.0501919174	 0.224934
N	-2.2558414693	 5.5363697921	 0.0647238322	-0.310668
H	 1.4097433368	 4.2244734544	 0.00813878	 0.198217
115.8156	123.4077	214.9456	220.8964	477.089	494.3096	515.0282	534.8111	601.0498	674.5469	686.598	748.0231	833.2503	969.9617	1012.2802	1164.2471	1211.3645	1282.2657	1326.6448	1569.3519	1578.7441	2366.2819	2368.6535	3302.0466
N#CC1=NC(=CO1)C#N	N#Cc1nc(co1)C#N	
InChI=1S/C5HN3O/c6-1-4-3-9-5(2-7)8-4/h3H	InChI=1S/C5HN3O/c6-1-4-3-9-5(2-7)8-4/h3H
