8
gdb 21764	2.39403	1.24458	0.81887	0.7387	57.25	-0.2592	-0.0798	0.1794	1199.8234	0.033197	-445.56185	-445.553116	-445.552172	-445.600531	24.741	
O	-1.3840582915	 1.5221011314	 0.0190646427	-0.300383
N	 2.9411985202	 1.5349790547	-0.0183792351	-0.216081
N	 2.3125011666	 0.5926180954	-0.0160308356	 0.299742
C	 1.4076662517	-0.3391648226	-0.0085292075	-0.158652
C	-1.6428153956	 0.3881465533	 0.0196059371	 0.592109
O	-1.9234576612	-0.7405891775	 0.0181086042	-0.300375
N	 1.9304967728	-2.7035321319	-0.0326838102	-0.216033
N	 1.794895257	-1.5788739728	-0.0232508155	 0.299674
13.6083	22.3464	46.625	55.6117	84.5721	192.3972	486.8077	510.7673	556.6075	619.2586	673.5045	688.8997	920.3141	1377.4892	1446.3205	2191.9298	2252.3713	2432.3222
O1N=NC2=C1ON=N2	O=C=O.[N][N][C][N][N]	
InChI=1S/C2N4O2/c3-1-2(7-5-3)8-6-4-1	InChI=1S/CN4.CO2/c2-4-1-5-3;2-1-3
