11
gdb 21423	3.7605	2.07941	1.339	4.8996	56.33	-0.2517	-0.0646	0.1871	813.2708	0.072697	-426.878733	-426.872054	-426.87111	-426.909816	23.506	
N	-0.0946616804	 1.3264615141	 0.0279186429	-0.573884
C	 0.0162252043	 0.0623774939	 0.0311121561	 0.520576
N	 1.0810484949	-0.8261466188	 0.0467065381	-0.324046
N	 0.6670185754	-2.1253885972	 0.0427142855	-0.033197
N	-0.5909674752	-2.1552129268	 0.0262413922	-0.076001
N	-1.0516959162	-0.8516702585	 0.0188674466	-0.11256
C	-2.4176125656	-0.5232072254	-0.000587139	 0.188144
O	-3.2993722584	-1.332642737	-0.0112060603	-0.260296
H	 0.8056600882	 1.7967871413	 0.03912311	 0.229513
H	 2.0647308691	-0.6186177895	 0.0594870046	 0.292351
H	-2.5365998862	 0.5711975339	-0.0038162768	 0.1494
128.0426	176.7597	208.8088	241.5903	382.0729	383.888	584.5882	689.8997	711.2903	719.3443	729.7897	817.9976	987.1749	1034.7028	1041.6968	1073.167	1167.703	1228.5568	1373.9413	1387.2918	1424.5845	1535.181	1773.8014	1841.435	3038.1018	3540.3237	3688.4093
N=C1NN=NN1C=O	[NH][C@H]1NN=NN1C=O	
InChI=1S/C2H3N5O/c3-2-4-5-6-7(2)1-8/h1H,(H2,3,4,6)	InChI=1S/C2H4N5O/c3-2-4-5-6-7(2)1-8/h1-3H,(H,4,6)/t2-/m0/s1
