11
gdb 132310	2.10215	1.60883	0.91135	5.358	59.01	-0.2798	-0.0532	0.2266	1117.7468	0.064781	-530.058656	-530.050437	-530.049493	-530.092569	28.005	
N	 0.0355606831	 1.274195204	 0.0074684512	-0.512318
C	 0.0505983783	-0.0689972551	 0.0003791009	 0.487293
N	-1.2188375995	-0.6004517642	 0.0043231305	-0.417432
C	-1.6720578245	-1.7444891861	 0.0008476572	 0.572305
O	-2.3731936817	-2.6657779151	-0.0001886898	-0.240752
O	 0.410819663	-2.8530389423	-0.0161107797	-0.357629
C	 1.2826147593	-2.0155386591	-0.0160030478	 0.387632
F	 2.5559381556	-2.4121764951	-0.0254490916	-0.069472
N	 1.2161264296	-0.662442215	-0.0087453685	-0.421069
H	 0.914407631	 1.7626173223	 0.0054024131	 0.287654
H	-0.8360105143	 1.7735265658	 0.0146441346	 0.283789
51.7783	107.0308	146.3761	176.5849	271.2424	273.61	400.8025	441.0647	560.6893	572.1744	600.5946	632.4426	728.2987	746.4542	808.6236	843.5247	972.6517	1131.7955	1316.884	1391.0179	1527.6894	1579.3388	1657.8926	1783.5127	2327.511	3622.2526	3763.6173
NC1=NC(=O)OC(F)=N1	NC(=NC(=O)F)N=C=O	
InChI=1S/C3H2FN3O2/c4-1-6-2(5)7-3(8)9-1/h(H2,5,7,8)	InChI=1S/C3H2FN3O2/c4-2(9)7-3(5)6-1-8/h(H2,5,7,9)
