11
gdb 15454	3.49034	2.07452	1.42204	1.5276	56.47	-0.2749	-0.0389	0.236	807.316	0.071644	-397.398621	-397.392021	-397.391077	-397.429749	23.769	
O	-0.0406416989	 0.0074226128	 0.0033913446	-0.292875
C	-0.0081839397	 1.1918893743	 0.0165952338	 0.431362
O	-1.1521167461	 1.986568416	-0.0333691183	-0.198737
C	-0.7107691418	 3.2870200629	-0.0114973863	 0.130554
N	 0.5318694905	 3.520225379	 0.0409036121	-0.232723
C	 1.1715554902	 2.1912139834	 0.0620912693	-0.303326
C	 2.0333947211	 1.9831164588	 1.215111917	 0.3566
C	 2.7344563827	 1.7968711727	 2.1707509681	-0.43773
H	-1.4998302975	 4.0284334188	-0.0456065651	 0.167064
H	 1.7524568073	 2.0640522258	-0.8616820392	 0.166199
H	 3.3589552221	 1.6334638456	 3.014449014	 0.213611
93.284	137.6081	227.0799	386.3565	415.7938	518.5106	564.241	641.5897	666.477	672.523	715.3842	856.3614	873.7137	931.7694	968.1841	1045.4918	1085.8695	1142.8599	1232.1435	1292.2054	1338.2633	1698.5104	1934.6389	2251.7832	3024.6015	3230.2171	3502.4279
O=C1OC=NC1C#C	O=C1OC=N[C@H]1C#C	
InChI=1S/C5H3NO2/c1-2-4-5(7)8-3-6-4/h1,3-4H	InChI=1S/C5H3NO2/c1-2-4-5(7)8-3-6-4/h1,3-4H/t4-/m0/s1
