10
gdb 21440	3.33703	2.60258	1.4622	2.5775	52.32	-0.2859	-0.0832	0.2028	745.564	0.060068	-450.57796	-450.571705	-450.570761	-450.609117	22.068	
N	-0.011300283	 1.1983360259	 0.4489173087	-0.452127
C	-0.0164075733	 0.0205455896	 0.0048873975	 0.288772
O	 1.1258786053	-0.5810795486	-0.470110318	-0.2677
N	 1.1170183027	-1.8941991693	-0.9647751481	-0.109077
C	 0.0003147856	-2.4966492547	-0.9503100152	 0.161374
O	-1.2024174686	-2.0453461591	-0.5187449351	-0.196656
C	-1.3042694431	-0.7627697064	-0.0119023214	 0.395007
O	-2.3557229084	-0.3660589111	 0.3668916783	-0.252536
H	 0.9263899238	 1.6034848724	 0.3986634683	 0.251297
H	-0.0390006409	-3.5115141587	-1.3254923549	 0.181646
61.7738	126.5934	353.8199	432.3259	498.0081	523.3169	551.0984	561.203	711.8294	789.0618	911.8325	915.4883	916.4164	972.59	1000.8854	1124.0416	1160.5344	1321.5359	1362.0879	1711.3694	1746.6618	1905.8304	3235.307	3473.2227
N=C1ON=COC1=O	[NH][C]1ON=COC1=O	
InChI=1S/C3H2N2O3/c4-2-3(6)7-1-5-8-2/h1,4H	InChI=1S/C3H2N2O3/c4-2-3(6)7-1-5-8-2/h1,4H
