11
gdb 24896	3.64729	1.30555	0.96141	4.4786	68.57	-0.2892	-0.1234	0.1658	1085.244	0.066431	-451.597632	-451.590637	-451.589693	-451.629769	24.913	
O	-0.0857771511	-0.0121536255	 0.003982628	-0.298646
C	 0.0306812314	 1.1695412977	 0.0088435466	 0.454646
O	-1.2034068219	 1.9235963541	 0.0297932296	-0.247173
C	-1.1869362497	 3.2556474877	 0.036824148	 0.317311
C	-0.0316171915	 3.9638538602	 0.0249446363	-0.242741
C	 1.1679799962	 3.1884151537	 0.0045085439	 0.046865
N	 1.2085580972	 1.8913092399	-0.0031387856	-0.300247
C	-2.4852105385	 3.8618377714	 0.0577434655	 0.260701
N	-3.521519851	 4.3744770376	 0.0745947296	-0.29601
H	-0.0279117937	 5.0436203806	 0.030718567	 0.153612
H	 2.1282085125	 3.7032498028	-0.0057848189	 0.151682
86.0665	128.4694	151.6006	360.2611	442.9161	459.3247	469.3972	558.074	597.1112	711.8132	746.0465	780.2285	793.4213	844.5642	943.9944	1017.7188	1035.5485	1091.8067	1229.6415	1392.0925	1416.4991	1569.5436	1678.9389	1901.7979	2356.2535	3144.0495	3252.5649
O=C1OC(=CC=N1)C#N	O=c1oc(ccn1)C#N	
InChI=1S/C5H2N2O2/c6-3-4-1-2-7-5(8)9-4/h1-2H	InChI=1S/C5H2N2O2/c6-3-4-1-2-7-5(8)9-4/h1-2H
