10
gdb 21835	6.45536	1.48654	1.20829	4.0758	51.27	-0.2885	-0.0799	0.2087	873.9524	0.060429	-446.736321	-446.729977	-446.729033	-446.767622	21.694	
O	-0.3261051877	 0.0394308137	 0.0036979046	-0.249955
C	-0.0950814684	 1.2170769016	 0.0083897122	 0.157265
N	 1.1727169337	 1.7796333897	-0.0008399241	-0.393992
C	 2.3677307996	 1.1017826171	-0.0159604087	 0.556302
N	 2.5678548079	-0.1881750295	-0.0272904323	-0.159069
O	 3.9331601338	-0.2833339265	-0.0396517964	-0.130992
N	 4.4868474495	 0.9738387889	-0.0349202802	 0.060004
N	 3.5519991661	 1.817811423	-0.0206968963	-0.229212
H	-0.8685061395	 2.0069635181	 0.0209266568	 0.105881
H	 1.255970845	 2.7860278339	 0.0051468944	 0.283768
62.7298	160.9009	212.3832	355.8575	395.3201	562.7961	650.2408	658.8728	772.0301	774.6363	876.5621	931.3032	1022.5436	1065.6922	1080.1124	1153.9509	1269.0514	1432.5109	1452.6028	1567.7168	1634.3154	1841.4831	2971.3297	3620.1221
O=CNC1=NON=N1	O=CNc1nonn1	
InChI=1S/C2H2N4O2/c7-1-3-2-4-6-8-5-2/h1H,(H,3,5,7)	InChI=1S/C2H2N4O2/c7-1-3-2-4-6-8-5-2/h1H,(H,3,5,7)
