11
gdb 132832	3.05412	1.56459	1.03459	3.3778	66.29	-0.288	-0.0992	0.1888	1011.6183	0.067263	-455.743373	-455.73672	-455.735776	-455.774836	24.081	
F	-0.0008842709	 0.030755886	 0.0031999209	-0.035695
C	-0.0189315047	 1.3532512702	 0.0105901919	 0.205748
C	-1.2193887241	 2.0524345899	 0.0301696884	-0.068417
N	-1.2422222209	 3.3823375215	 0.0376681498	-0.231625
C	-0.0558840766	 3.9999939564	 0.0254107142	 0.067444
N	 1.1428025666	 3.4266413621	 0.0065219606	-0.287779
C	 1.1656106566	 2.0869674911	-0.0010316395	 0.101495
C	 2.4384749246	 1.4199657765	-0.0213881165	 0.266133
N	 3.4520122386	 0.8647729657	-0.037729414	-0.313243
H	-2.1640985128	 1.5151263201	 0.0396939242	 0.152588
H	-0.0724993565	 5.0857007105	 0.0314780399	 0.143351
122.7016	146.4942	248.1654	361.107	407.2095	476.0017	495.4563	564.8577	629.6665	637.9231	740.0466	815.5807	878.0383	950.9636	1003.4584	1152.4594	1189.7181	1231.667	1290.9617	1333.464	1451.0203	1470.0861	1592.0337	1612.2157	2360.4655	3174.6721	3188.7824
FC1=CN=CN=C1C#N	Fc1cncnc1C#N	
InChI=1S/C5H2FN3/c6-4-2-8-3-9-5(4)1-7/h2-3H	InChI=1S/C5H2FN3/c6-4-2-8-3-9-5(4)1-7/h2-3H
