10
gdb 21618	7.45347	1.38522	1.16861	6.502	55.73	-0.2718	-0.0592	0.2126	908.3227	0.06181	-409.652611	-409.646114	-409.64517	-409.683248	23.307	
N	-0.0044639157	 1.3323051235	 0.1305914203	-0.600999
C	-0.0505799984	-0.0112569746	 0.0486839405	 0.512704
N	-1.108372898	-0.7807845115	 0.0408880116	-0.374319
C	-0.5241636847	-2.019275962	-0.0017503343	 0.277926
N	 0.7877514785	-2.0470461517	-0.0239595848	-0.169103
O	 1.1133024623	-0.6791655734	 0.0102707482	-0.192448
C	-1.2780838591	-3.2327436655	-0.0250385523	 0.27855
N	-1.8975704003	-4.2075295273	-0.0443521448	-0.31324
H	 0.8547136452	 1.7965940864	-0.112536292	 0.287882
H	-0.8647147198	 1.8254367861	-0.0419044023	 0.293047
146.7817	163.2446	309.5103	351.8656	380.77	426.974	499.8889	557.0402	581.6035	728.1846	774.148	784.3223	930.3691	1004.1927	1043.1047	1117.6905	1359.9928	1422.1646	1532.6826	1597.1497	1696.876	2376.3286	3613.1962	3733.4328
NC1=NC(=NO1)C#N	Nc1nc(no1)C#N	
InChI=1S/C3H2N4O/c4-1-2-6-3(5)8-7-2/h(H2,5,6,7)	InChI=1S/C3H2N4O/c4-1-2-6-3(5)8-7-2/h(H2,5,6,7)
