9
gdb 128874	10.17687	0.68444	0.6413	1.5513	72.96	-0.3132	-0.1196	0.1936	1527.8656	0.042087	-446.443252	-446.436304	-446.43536	-446.475586	23.714	
N	 0.0913788143	-3.7040692683	-0.0191049435	-0.309174
C	 0.053073734	-2.5434443949	-0.0120943548	 0.19803
C	 0.007925161	-1.1797659211	-0.0038920731	 0.278878
C	-0.0362844074	 0.0268045343	 0.0033672562	 0.031695
C	-0.0630867927	 1.4339217843	 0.0115171549	 0.198462
N	-1.1514515492	 2.1657769591	 0.0299660405	-0.119643
O	-0.708515622	 3.4288382116	 0.0311333542	-0.130122
N	 0.6996484837	 3.4242308653	 0.0125922525	 0.031433
N	 1.0773358983	 2.2322844097	 0.0010155231	-0.179557
78.1868	88.8159	237.8947	241.5181	438.3453	471.1603	503.9639	588.1932	602.8676	618.4633	671.545	780.1973	960.7048	989.2234	1060.4478	1123.4794	1283.224	1507.1751	1551.2087	2277.7584	2399.5105
N#CC#CC1=NON=N1	N#CC#Cc1nonn1	
InChI=1S/C4N4O/c5-3-1-2-4-6-8-9-7-4	InChI=1S/C4N4O/c5-3-1-2-4-6-8-9-7-4
