10
gdb 21744	5.79022	2.4188	1.7061	6.1285	52.6	-0.274	-0.0405	0.2335	657.5523	0.063252	-409.604015	-409.599094	-409.59815	-409.633018	18.655	
O	-0.0567836359	 1.3282919161	 0.0097844402	-0.203249
C	 1.2622862099	 1.758542867	-0.000398545	-0.032498
C	 2.1218475127	 0.7179766423	-0.0142927743	-0.111083
N	 1.3024703337	-0.4088486515	-0.0127276374	 0.015407
N	 1.319276265	-1.7654415731	-0.0203423066	-0.158842
N	 0.0601970898	-2.1051644225	-0.0102021097	-0.09215
N	-0.79495922	-1.0375490492	 0.0038122288	-0.342792
C	 0.0178838079	-0.0113606941	 0.0016933176	 0.556493
H	 1.4089323581	 2.8243646888	 0.0040697578	 0.179889
H	 3.1962765288	 0.6820772162	-0.0247181113	 0.188824
220.3596	355.0569	472.3253	587.4321	691.3353	713.7965	737.7092	776.37	786.3812	814.2843	936.9736	988.9945	1033.9783	1103.1827	1144.6692	1174.7037	1245.969	1296.9606	1391.2009	1468.616	1582.7609	1622.5412	3299.2322	3319.6634
O1C=CN2N=NN=C12	o1ccn2nnnc12	
InChI=1S/C3H2N4O/c1-2-8-3-4-5-6-7(1)3/h1-2H	InChI=1S/C3H2N4O/c1-2-8-3-4-5-6-7(1)3/h1-2H
