11
gdb 132219	2.03279	1.87116	0.97432	1.889	57.21	-0.2554	-0.0349	0.2205	1044.2247	0.065521	-537.960143	-537.953468	-537.952524	-537.991713	24.682	
F	 0.116664171	 0.0954424837	 0.0159828381	-0.025074
C	-0.06332284	 1.3881357832	-0.0191331867	 0.398749
C	-1.2146154286	 2.0339239339	 0.1367675065	-0.358718
C	-1.2140991685	 3.4952797242	 0.0637366353	 0.359562
N	-2.284742696	 4.1692221679	 0.2051676592	-0.518936
N	 0.0525231375	 4.0999864297	-0.1734059922	-0.408049
C	 1.0551293616	 3.3568975231	-0.3002443238	 0.414156
F	 2.2542175639	 3.8209255094	-0.5191185046	-0.029583
O	 1.1305588301	 2.0048278947	-0.2450319722	-0.214469
H	-2.1349020294	 1.4977580497	 0.3139266588	 0.152371
H	-2.0711475417	 5.1647370905	 0.1206330115	 0.22999
132.1228	189.4386	223.8287	348.9268	371.7699	495.4613	547.3594	615.8906	636.9776	639.0875	686.2548	744.8381	866.0221	919.1274	921.3361	993.8012	1030.5893	1152.282	1244.5805	1264.5692	1367.3438	1400.7188	1703.9712	1742.211	1794.3008	3254.7314	3473.0606
FC1=CC(=N)N=C(F)O1	F[C@@H]1C=C([NH])N=C(F)O1	
InChI=1S/C4H2F2N2O/c5-2-1-3(7)8-4(6)9-2/h1,7H	InChI=1S/C4H3F2N2O/c5-2-1-3(7)8-4(6)9-2/h1-2,7H/t2-/m0/s1
