10
gdb 129243	3.16135	1.43301	0.98605	0.6593	64.64	-0.2504	-0.1144	0.136	1049.5032	0.053409	-504.741869	-504.734779	-504.733835	-504.774005	25.003	
N	-0.2812877023	 1.1747086765	 0.0103124489	-0.545646
C	 0.0053591872	-0.0395301913	 0.0027036151	 0.51843
O	 1.2493988191	-0.6249335956	-0.0070096069	-0.238595
C	 1.1381884622	-2.0213400539	-0.0133608661	 0.370655
C	-0.2931875651	-2.2178521129	-0.0065902557	 0.282964
O	-0.9626145891	-1.0109434145	 0.0030977572	-0.223149
N	-0.938095058	-3.3360815939	-0.0085466959	 0.094488
N	-1.4778890263	-4.3383427543	-0.0105952462	-0.188461
O	 2.0698276754	-2.7631880508	-0.0221352491	-0.326131
H	 0.555067277	 1.7523678509	 0.0086311786	 0.255444
96.5018	147.0885	167.99	277.3599	361.2604	457.721	467.9803	551.6963	657.2339	683.0647	700.051	726.1992	799.8199	807.064	963.3283	991.4887	1052.8341	1280.1054	1311.9707	1466.3326	1819.1305	1913.6625	2188.4973	3555.5523
N=C1OC2=C(O1)N=NO2	[NH][C]1OC(=O)[C](O1)[N][N]	
InChI=1S/C3HN3O3/c4-3-7-1-2(8-3)9-6-5-1/h4H	InChI=1S/C3HN3O3/c4-3-8-1(6-5)2(7)9-3/h4H
