11
gdb 24747	3.85014	1.27446	0.95751	5.4926	67.66	-0.288	-0.1172	0.1709	1095.407	0.066587	-451.584697	-451.577595	-451.576651	-451.617067	24.626	
O	-0.0373327014	-0.0256107847	 0.0034307547	-0.272625
C	-0.0652829294	 1.181654001	 0.006818929	 0.199937
C	 1.1746589131	 1.9780486095	 0.0006061301	 0.270921
N	 2.1843072071	 2.5401416461	-0.0046869867	-0.310951
C	-1.2938929902	 1.9816676205	 0.0172748867	 0.343203
N	-1.3984060811	 3.2802614675	 0.0214976071	-0.286284
C	-2.75246157	 3.5167305023	 0.0312200287	-0.108947
C	-3.4059543386	 2.3195346674	 0.0325130691	-0.01638
O	-2.4836151017	 1.3313905237	 0.0236555981	-0.14483
H	-3.1621864796	 4.513864513	 0.0366175579	 0.151348
H	-4.4399885182	 2.0186496137	 0.0387212852	 0.174608
75.793	124.6353	173.0939	243.928	317.8929	459.6528	485.3345	628.98	676.4584	681.737	803.7021	811.4591	888.2067	930.0519	952.2462	1039.3607	1125.8717	1151.7578	1174.3811	1311.6814	1408.5651	1500.3122	1574.4638	1768.9208	2348.6617	3270.9816	3299.9899
O=C(C#N)C1=NC=CO1	O=C(C#N)c1ncco1	
InChI=1S/C5H2N2O2/c6-3-4(8)5-7-1-2-9-5/h1-2H	InChI=1S/C5H2N2O2/c6-3-4(8)5-7-1-2-9-5/h1-2H
