10
gdb 21751	5.80802	2.41807	1.70727	4.5044	52.27	-0.2686	-0.0433	0.2253	656.4259	0.063823	-409.618069	-409.61317	-409.612226	-409.64708	18.447	
O	-0.059488663	 1.3381374417	 0.0098873635	-0.194889
C	 1.2526235592	 1.7241950179	-0.0006590562	 0.094436
N	 2.131782343	 0.7778829442	-0.0141089384	-0.223173
N	 1.3326054083	-0.3479497477	-0.0125512379	 0.000836
C	 1.3383895822	-1.718766435	-0.0199684634	 0.005052
N	 0.0913402886	-2.1348427746	-0.0103942885	-0.20794
N	-0.7806369879	-1.0418543586	 0.0039808851	-0.342738
C	 0.0180046811	-0.0196363796	 0.001804151	 0.508335
H	 1.4560561709	 2.7825149163	 0.0031096869	 0.190545
H	 2.2227735475	-2.3320469146	-0.0317391422	 0.169535
212.4971	346.8562	489.1248	623.9209	656.065	718.6618	744.4379	781.7023	791.3168	858.8687	940.6586	979.744	1007.1008	1103.096	1167.6245	1208.873	1293.1842	1393.3187	1425.0669	1468.3022	1582.8438	1624.18	3298.1756	3299.4159
O1C=NN2C=NN=C12	o1cnn2cnnc12	
InChI=1S/C3H2N4O/c1-4-6-3-7(1)5-2-8-3/h1-2H	InChI=1S/C3H2N4O/c1-4-6-3-7(1)5-2-8-3/h1-2H
