11
gdb 133418	2.47783	1.75416	1.02706	1.2868	59.27	-0.2529	-0.0722	0.1807	993.8579	0.06458	-537.889099	-537.8823	-537.881356	-537.92065	25.345	
F	 0.0329149024	 0.065899657	 0.2098862983	-0.041195
C	 0.0120637125	 1.3801311664	 0.0574394016	 0.191211
C	-1.1553258012	 2.0423370371	 0.0060898933	-0.022594
O	-1.2577764105	 3.3834235659	-0.1476894298	-0.230164
N	-0.116900692	 4.1519504611	-0.2623604403	-0.118005
C	 1.0011436947	 3.5313633276	-0.2150366616	 0.30135
F	 2.0742472656	 4.2952985568	-0.3258865244	-0.043899
C	 1.2673555317	 2.0912659033	-0.0529826272	 0.085424
N	 2.4168990777	 1.5327597713	-0.0131067452	-0.529613
H	-2.1264835506	 1.5718157175	 0.0822397757	 0.170046
H	 3.1525805998	 2.2341736261	-0.1110472202	 0.237438
97.2524	279.0854	297.8586	328.8813	330.3774	453.8415	458.4599	539.5767	550.1338	587.3135	693.5959	759.4156	873.8104	881.3314	906.5996	953.3866	1018.0907	1183.5967	1258.7689	1310.1307	1369.118	1463.3445	1645.6902	1688.8128	1704.8794	3236.1496	3477.8287
FC1=CON=C(F)C1=N	FC1=C(C(=NO[CH]1)F)[NH]	
InChI=1S/C4H2F2N2O/c5-2-1-9-8-4(6)3(2)7/h1,7H	InChI=1S/C4H2F2N2O/c5-2-1-9-8-4(6)3(2)7/h1,7H
