11
gdb 21852	3.7828	1.9424	1.2834	2.3667	63.46	-0.229	-0.0345	0.1945	849.356	0.072822	-393.546675	-393.540021	-393.539077	-393.577437	24.777	
O	 0.1265840568	 1.3653275782	 0.0420715925	-0.420063
C	 0.0810556642	 0.0289749144	-0.0254669266	 0.230209
C	 0.0180321186	-0.7548219735	-1.1696765632	 0.169889
N	-0.0056956652	-2.0205945432	-0.6410084712	-0.275338
N	 0.0381873599	-2.0165304684	 0.6877591883	-0.107891
N	 0.0914673743	-0.7618344994	 1.0687596696	-0.267245
C	-0.0175119658	-0.4606161784	-2.5398431718	 0.311073
C	-0.0485621643	-0.2206757527	-3.7197387379	-0.445749
H	 0.1649604319	 1.5984214864	 0.9790995962	 0.312098
H	-0.0505313057	-2.8951750467	-1.1406696278	 0.289064
H	-0.0753941848	 0.0049108131	-4.7571091982	 0.203953
138.2993	166.7071	326.6371	367.216	400.4362	479.1754	531.2655	544.0701	568.2486	615.5259	691.1517	711.963	753.4294	756.1195	1004.2608	1138.9486	1159.9831	1225.7741	1286.4574	1341.0891	1399.1286	1527.7502	1657.3864	2235.0658	3500.3801	3651.1399	3787.5631
OC1=C(NN=N1)C#C	Oc1c([nH]nn1)C#C	
InChI=1S/C4H3N3O/c1-2-3-4(8)6-7-5-3/h1H,(H2,5,6,7,8)	InChI=1S/C4H3N3O/c1-2-3-4(8)6-7-5-3/h1H,(H2,5,6,7,8)
