11
gdb 132339	2.03115	1.92208	0.98756	2.2302	56.49	-0.2566	-0.0558	0.2008	1029.3385	0.066975	-534.17	-534.163407	-534.162463	-534.20149	24.402	
F	 0.0505797717	 0.0968864771	 0.0035243246	-0.029461
C	-0.0496804383	 1.4021822979	 0.0115236388	 0.43796
N	-1.2137915061	 1.952593308	 0.0301346339	-0.401588
C	-1.1324243061	 3.3160869298	 0.0358855896	 0.344478
F	-2.3117329663	 3.8901271731	 0.0548858317	-0.035546
N	-0.1026258198	 4.0834880892	 0.0257768436	-0.358903
C	 1.1453071286	 3.479569886	 0.0057831581	 0.431623
N	 2.2875817482	 4.0297068746	-0.0071081582	-0.552656
N	 1.114031626	 2.0537641913	-0.00101399	-0.371183
H	 2.1733702896	 5.0416563818	-0.0005274404	 0.239817
H	 1.9977324826	 1.5633922413	-0.0155906017	 0.295459
132.2681	203.4049	213.3821	362.4431	380.7457	530.0868	563.3058	621.21	632.4006	655.4703	732.3026	736.3781	795.16	864.1247	949.3121	1017.2022	1090.5024	1157.793	1278.2835	1302.3979	1422.5831	1532.6575	1622.2191	1704.656	1760.4128	3522.1384	3615.6219
FC1=NC(F)=NC(=N)N1	F[C@@H]1N=C(F)N=C([NH])N1	
InChI=1S/C3H2F2N4/c4-1-7-2(5)9-3(6)8-1/h(H2,6,7,8,9)	InChI=1S/C3H3F2N4/c4-1-7-2(5)9-3(6)8-1/h1,6H,(H,7,8,9)/t1-/m1/s1
