9
gdb 21748	3.95944	2.07503	1.3615	2.142	58.02	-0.2446	-0.0966	0.148	776.7583	0.049352	-429.532719	-429.526776	-429.525832	-429.563141	20.874	
O	-0.0615320824	 1.5308252254	 0.0109518479	-0.201581
C	 1.2931278691	 1.6528703114	-0.0012340157	 0.109008
N	 1.9848129241	 0.5718377829	-0.0138229515	-0.308357
C	 1.0006923645	-0.4177213451	-0.0097368021	 0.22627
C	-0.343448409	 0.1451564579	 0.0061727706	 0.392478
O	-1.4492391217	-0.3043131808	 0.0142827231	-0.339886
N	 1.4426308106	-2.8126330923	-0.0270636334	-0.183705
N	 1.261046398	-1.6971724656	-0.0192699904	 0.136821
H	 1.6837605367	 2.6601470162	 0.0003927715	 0.168952
153.0964	153.4819	268.8903	428.1902	517.7979	566.9539	614.6109	628.8271	737.7852	761.6907	876.4006	886.8113	958.4932	1144.5056	1228.7289	1326.044	1416.6329	1620.0469	1888.9932	2226.46	3258.7204
O1C=NC2=C1ON=N2	O1C=N[C](C1=O)[N][N]	
InChI=1S/C3HN3O2/c1-4-2-3(7-1)8-6-5-2/h1H	InChI=1S/C3HN3O2/c4-6-2-3(7)8-1-5-2/h1H
