10
gdb 130775	3.76793	1.28268	0.95692	3.0226	63.25	-0.307	-0.1542	0.1528	1074.2455	0.05368	-467.593856	-467.586855	-467.58591	-467.626317	24.364	
O	-0.0190147382	-0.0480793928	 0.0034281861	-0.2878
C	 0.0224773379	 1.1396289948	 0.0088494348	 0.483437
O	-1.2108196049	 1.829797111	 0.0296347387	-0.233262
N	-1.3103456949	 3.192459051	 0.0379018408	-0.00425
C	-0.2060931722	 3.8530118132	 0.0258237175	-0.004045
C	 1.0766004524	 3.1821108136	 0.0042592326	 0.219988
N	 1.1964358589	 1.897939668	-0.0036899241	-0.346284
C	 2.2672745816	 3.9968883993	-0.007560889	 0.272369
N	 3.1849140231	 4.6997319353	-0.0163284264	-0.278058
H	-0.2905720236	 4.9332506066	 0.0326492692	 0.177904
55.7811	135.9072	150.4258	337.5522	447.5532	454.2959	467.5009	583.9215	592.9972	693.5115	736.7692	789.1382	834.4987	913.5911	920.997	1035.1977	1109.3378	1238.4963	1358.6197	1582.2774	1661.9177	1888.9042	2357.0437	3216.583
O=C1ON=CC(=N1)C#N	O=c1oncc(n1)C#N	
InChI=1S/C4HN3O2/c5-1-3-2-6-9-4(8)7-3/h2H	InChI=1S/C4HN3O2/c5-1-3-2-6-9-4(8)7-3/h2H
