10
gdb 8976	4.30166	0.98016	0.82313	1.8849	61.08	-0.2807	-0.1277	0.153	1254.6998	0.056571	-417.254316	-417.246118	-417.245174	-417.288663	25.604	
O	-0.2645903725	 0.2183697649	 0.2223198715	-0.206354
C	 0.2254910049	 1.0385320575	-0.5142390375	 0.02959
C	 1.3668718621	 1.8529207156	-0.1570597719	 0.025486
C	 2.3227021394	 2.5417253851	 0.1181687502	 0.142282
C	 3.4525922229	 3.3699546984	 0.4647136824	 0.122682
O	 3.358937046	 4.4432942363	 1.016639633	-0.240128
C	 4.839395644	 2.8267618618	 0.0890959558	 0.086085
O	 5.0107380063	 1.7886891252	-0.4861428616	-0.206456
H	-0.1645014753	 1.2327435883	-1.5323647475	 0.122737
H	 5.6526994122	 3.510195657	 0.4074948858	 0.124075
51.1274	86.3702	96.9061	127.2867	215.883	266.0162	317.7526	459.8572	550.9113	602.1749	708.3956	745.4364	1003.5903	1014.6124	1026.5368	1228.6704	1361.8127	1415.0162	1760.8796	1775.4986	1832.1423	2297.6766	2941.9067	2945.1626
O=CC#CC(=O)C=O	O=CC#CC(=O)C=O	
InChI=1S/C5H2O3/c6-3-1-2-5(8)4-7/h3-4H	InChI=1S/C5H2O3/c6-3-1-2-5(8)4-7/h3-4H
