11
gdb 21896	3.77989	1.92968	1.2775	5.641	59.33	-0.2504	-0.0225	0.2279	845.4166	0.074762	-393.618946	-393.612519	-393.611575	-393.649586	23.68	
O	 0.124309979	 1.3210487481	 0.0570593996	-0.40847
C	 0.0813087901	-0.0163236567	 0.0451239706	 0.358618
N	 0.0847215934	-0.7239151704	-1.0700631846	-0.318824
N	 0.0327937628	-2.0135677295	-0.6407809169	-0.187803
C	-0.0024137681	-2.1307335425	 0.6949915535	-0.100268
C	 0.0272192982	-0.8392533045	 1.2065518688	 0.029146
C	 0.0080362735	-0.4424577015	 2.5613794839	 0.206479
N	-0.007760521	-0.1188246948	 3.6733529971	-0.349941
H	 0.1557476579	 1.6233639932	-0.8599455784	 0.31358
H	 0.0251700752	-2.7507151407	-1.324588073	 0.290493
H	-0.045085341	-3.0838565106	 1.1968611793	 0.166988
144.1211	168.6887	321.3701	390.3642	418.8793	473.3884	550.9785	551.1507	606.1826	649.0275	743.1225	757.1041	822.8053	939.0378	1079.118	1137.43	1247.1295	1250.7775	1333.9689	1435.7398	1501.6856	1577.7622	1616.8381	2350.6116	3273.307	3684.2233	3791.8764
OC1=NNC=C1C#N	Oc1n[nH]cc1C#N	
InChI=1S/C4H3N3O/c5-1-3-2-6-7-4(3)8/h2H,(H2,6,7,8)	InChI=1S/C4H3N3O/c5-1-3-2-6-7-4(3)8/h2H,(H2,6,7,8)
