10
gdb 23853	3.3853	2.39488	1.40262	3.6649	52.3	-0.2685	-0.0775	0.191	761.2083	0.060067	-458.545467	-458.539565	-458.53862	-458.575726	21.673	
F	 0.0367343559	 0.0788935395	 0.003604278	-0.021184
C	-0.00992232	 1.3903782154	 0.0109958976	 0.244677
N	-1.1891368395	 1.8960478697	 0.0287115707	-0.109251
O	-1.2665825954	 3.2788437281	 0.0368739149	-0.220956
C	-0.1494299273	 4.0196666244	 0.026333553	 0.12591
C	 1.1053045128	 3.5310784049	 0.0077636852	-0.276535
C	 1.3041220059	 2.097223391	-0.0018816294	 0.286673
O	 2.3593945483	 1.4952577571	-0.0190589352	-0.340909
H	-0.4056340324	 5.0733635235	 0.0349311251	 0.165366
H	 1.9591360817	 4.1957640763	 0.0001054901	 0.14621
122.9022	308.134	310.9417	418.1012	476.6991	519.901	559.3822	588.2482	722.3596	773.9686	859.6192	908.3969	975.3804	976.1169	1037.9782	1209.428	1274.7678	1387.7123	1440.0565	1633.7771	1645.5696	1778.928	3206.4875	3231.6667
FC1=NOC=CC1=O	Fc1noccc1=O	
InChI=1S/C4H2FNO2/c5-4-3(7)1-2-8-6-4/h1-2H	InChI=1S/C4H2FNO2/c5-4-3(7)1-2-8-6-4/h1-2H
