11
gdb 128868	9.80114	0.69165	0.64606	7.618	80.96	-0.2708	-0.0715	0.1992	1557.335	0.068598	-410.596573	-410.589481	-410.588537	-410.628988	24.814	
N	 0.0296025942	-3.6791777068	-0.018153147	-0.329489
C	 0.0230739358	-2.5171706019	-0.0116271048	 0.167419
C	 0.0143654231	-1.1536622163	-0.0039235647	 0.342627
C	 0.0024464216	 0.0549128658	 0.003026885	-0.034866
C	 0.0046611696	 1.4694751175	 0.0109288812	 0.107615
N	-1.1250015069	 2.1788080332	 0.0298693785	-0.246716
N	-0.657955663	 3.4386751923	 0.0307951424	-0.173109
C	 0.6938881382	 3.4498211091	 0.0129917471	-0.008397
N	 1.1531303386	 2.2185524159	-0.0000153926	-0.284331
H	-1.3073476235	 4.2095824996	 0.0437259466	 0.296921
H	 1.2807489524	 4.3557932916	 0.0103476892	 0.162326
76.4957	87.1174	229.7933	232.9409	439.2144	471.7291	513.5124	579.0921	586.2956	594.8921	680.7914	780.6123	863.3537	950.6387	998.6755	1059.0515	1116.5667	1169.0383	1300.6762	1331.523	1457.7729	1482.5617	1527.1564	2270.0126	2393.9712	3265.0051	3652.6029
N#CC#CC1=NNC=N1	N#CC#Cc1n[nH]cn1	
InChI=1S/C5H2N4/c6-3-1-2-5-7-4-8-9-5/h4H,(H,7,8,9)	InChI=1S/C5H2N4/c6-3-1-2-5-7-4-8-9-5/h4H,(H,7,8,9)
