9
gdb 21324	6.44755	1.62643	1.2988	2.3001	57.66	-0.2895	-0.1366	0.1529	811.6728	0.048552	-388.501028	-388.494972	-388.494028	-388.531571	20.81	
N	-0.0016113108	-1.1540545319	-0.0029145991	-0.286534
C	 0.0145052501	 0.0018794154	 0.0022794808	 0.283142
C	-0.0266047617	 1.4347265024	 0.010426054	 0.266281
C	-1.2322407081	 2.1361293217	 0.0305310786	-0.004065
N	-1.221419686	 3.4602475105	 0.0376666081	-0.14495
N	-0.048807128	 4.0866322766	 0.0254378081	-0.029914
N	 1.0903727223	 3.4224721117	 0.0065075242	-0.046606
N	 1.131192209	 2.0984601558	-0.0013064163	-0.213651
H	-2.1990098367	 1.6430297378	 0.0409226816	 0.176296
108.0106	165.4798	278.6097	313.2514	494.1073	556.815	603.2735	680.2823	819.1366	838.2207	870.3065	974.7791	1061.3815	1086.302	1209.0625	1286.6894	1357.9208	1488.0138	1567.9469	2358.6939	3193.495
N#CC1=CN=NN=N1	N#Cc1cnnnn1	
InChI=1S/C3HN5/c4-1-3-2-5-7-8-6-3/h2H	InChI=1S/C3HN5/c4-1-3-2-5-7-8-6-3/h2H
