10
gdb 21443	3.38615	2.5215	1.44528	1.7773	53.93	-0.2911	-0.083	0.2081	749.9675	0.060103	-446.722948	-446.716556	-446.715612	-446.754146	22.65	
N	-0.031205529	 1.279981334	 0.328796986	-0.449876
C	-0.035679542	 0.0730311966	-0.0224173917	 0.32913
O	 1.1142347267	-0.5803974552	-0.4264744043	-0.292403
N	 1.1482282203	-1.953769272	-0.8336897261	 0.049412
N	 0.0995562347	-2.6012518452	-0.8280280752	-0.013064
N	-1.0752675941	-2.0459918408	-0.4477440527	-0.268346
C	-1.2960450667	-0.7400843555	-0.0255154553	 0.393485
O	-2.3879052405	-0.3519253391	 0.2901830673	-0.29476
H	 0.9086111116	 1.677868319	 0.2703553838	 0.250502
H	-1.864296961	-2.6771185916	-0.4855963017	 0.29592
69.3222	117.6306	337.2452	422.2315	450.0058	532.3597	565.3544	576.6873	673.3539	691.4748	789.6188	824.3431	913.3305	977.3288	1010.179	1131.0478	1203.8068	1340.1846	1440.9357	1622.8151	1756.5733	1847.0915	3478.8151	3610.5401
N=C1ON=NNC1=O	[NH][C]1ON=NNC1=O	
InChI=1S/C2H2N4O2/c3-1-2(7)4-5-6-8-1/h3H,(H,4,6,7)	InChI=1S/C2H2N4O2/c3-1-2(7)4-5-6-8-1/h3H,(H,4,6,7)
