11
gdb 133519	3.43566	1.0071	0.9022	4.4279	46.99	-0.2781	-0.065	0.2131	1190.3922	0.060936	-620.223531	-620.215144	-620.2142	-620.260025	27.935	
F	 0.7489355885	 0.4003334986	 0.2601025175	-0.053505
C	-0.0526663409	 1.4141584495	-0.0466000965	 0.251109
F	 0.7175390134	 2.4512657912	-0.4375366002	-0.089925
F	-0.8181704677	 1.061591262	-1.0734340927	-0.05362
C	-0.9466309513	 1.7703564605	 1.1804867586	 0.268441
O	-1.681746261	 0.9424833922	 1.6376100216	-0.281025
N	-0.77340604	 3.0731320784	 1.6177960782	-0.358857
C	-1.4275143589	 3.692917463	 2.6914589665	 0.169165
O	-2.2447654004	 3.1851456941	 3.4019936733	-0.233473
H	-0.1047925731	 3.6320671663	 1.1071765021	 0.27629
H	-1.0782107685	 4.7384625041	 2.7954289916	 0.1054
4.3301	71.5839	166.3764	203.7144	255.5467	278.3239	318.5202	417.9035	513.4244	570.3216	597.7988	661.1147	762.7749	778.7825	936.5303	1027.6254	1043.4349	1141.4068	1215.6042	1232.4754	1303.8498	1440.5817	1526.4963	1825.3555	1887.9848	2949.9414	3616.0298
FC(F)(F)C(=O)NC=O	FC(F)(F)C(=O)NC=O	
InChI=1S/C3H2F3NO2/c4-3(5,6)2(9)7-1-8/h1H,(H,7,8,9)	InChI=1S/C3H2F3NO2/c4-3(5,6)2(9)7-1-8/h1H,(H,7,8,9)
