11
gdb 131990	2.92441	1.65532	1.05807	3.5683	57.97	-0.2735	-0.1168	0.1566	992.6783	0.065376	-521.866339	-521.859193	-521.858249	-521.898383	25.865	
N	-0.0224369449	 1.3791189116	 0.1338566589	-0.597659
C	 0.0344771272	 0.0324400493	 0.0389614739	 0.374902
N	-1.0115503431	-0.7667748078	 0.0139991657	-0.167764
O	-0.4825229759	-2.0533996009	-0.0308420222	-0.131758
N	 0.8533513193	-2.0584601379	-0.0380665279	-0.097874
C	 1.1999391985	-0.8011747242	 0.0013914272	 0.370591
N	 2.5801254954	-0.3843792328	-0.0150750929	 0.381159
O	 3.4496535407	-1.2320208414	 0.0077900224	-0.318267
O	 2.7577038925	 0.8362708534	-0.0558612337	-0.385495
H	 0.8274436351	 1.8776850837	-0.0759357041	 0.291363
H	-0.9048612247	 1.826116977	-0.0524367573	 0.280802
71.6408	203.3514	225.7741	329.7502	346.8638	388.1998	438.6751	485.9792	557.9874	620.3377	706.9898	740.2042	805.9911	853.6752	900.4132	957.1005	1087.3178	1136.6046	1241.6676	1396.5252	1461.6506	1512.6886	1582.8169	1647.4049	1679.5788	3595.3805	3722.2472
NC1=NON=C1N(=O)=O	Nc1nonc1N(=O)=O	
InChI=1S/C2H2N4O3/c3-1-2(6(7)8)5-9-4-1/h(H2,3,4)	InChI=1S/C2H2N4O3/c3-1-2(6(7)8)5-9-4-1/h(H2,3,4)
