11
gdb 21679	5.81676	1.69007	1.31139	4.5473	56.46	-0.249	-0.1017	0.1474	833.8634	0.072729	-430.71364	-430.707162	-430.706217	-430.744343	23.949	
N	 0.0551290744	 1.4149067699	 0.0633267164	-0.54534
C	-0.0376224758	 0.0528255902	-0.0371655653	 0.475009
N	-1.2134141312	-0.4965220638	-0.0205247655	-0.170919
O	-1.2453935304	-1.8845869366	-0.2479453551	-0.240045
C	-0.1180410286	-2.6210249616	-0.438536989	 0.428421
O	-0.1835649342	-3.8042765299	-0.6440064398	-0.32812
C	 1.1413201899	-1.8534324907	-0.3578103442	-0.089852
N	 1.1954683848	-0.5886525574	-0.1740401605	-0.238538
H	 0.9294027606	 1.7596881146	 0.4263898237	 0.272953
H	-0.776530244	 1.8974226605	 0.3664908058	 0.274647
H	 2.0612230146	-2.4259948152	-0.4608603865	 0.161785
87.0087	284.2465	308.7755	345.1769	427.1275	457.799	518.1027	534.3172	605.2644	618.2855	791.0464	792.953	833.1651	948.603	984.0881	1007.2543	1150.8271	1241.3118	1344.5357	1427.5155	1583.0574	1636.1134	1699.4939	1831.1554	3162.7997	3591.9665	3712.5588
NC1=NOC(=O)C=N1	Nc1noc(=O)cn1	
InChI=1S/C3H3N3O2/c4-3-5-1-2(7)8-6-3/h1H,(H2,4,6)	InChI=1S/C3H3N3O2/c4-3-5-1-2(7)8-6-3/h1H,(H2,4,6)
