11
gdb 21693	3.52649	2.48595	1.45836	2.1673	55.62	-0.2555	-0.0651	0.1904	758.0383	0.072983	-430.722349	-430.715747	-430.714803	-430.753313	23.868	
N	 0.028051745	 1.3315202606	 0.0619912653	-0.541476
C	-0.0491020806	-0.0098233494	 0.0179353571	 0.338179
N	-1.2077931665	-0.6046198933	 0.003581635	-0.208953
O	-1.134266634	-2.013303439	-0.0114109277	-0.190047
C	 0.0420742179	-2.619468614	-0.014139034	 0.175489
N	 1.217766366	-2.0980663959	-0.0153206036	-0.328612
C	 1.2752722354	-0.7171942486	-0.0089769039	 0.376225
O	 2.3029338318	-0.0722308657	-0.0285421666	-0.346
H	 0.9503441562	 1.7274146871	-0.0263519415	 0.28799
H	-0.7957152619	 1.9026501033	-0.0111618987	 0.276175
H	-0.0956233193	-3.699128265	-0.0172588913	 0.161029
82.153	196.0426	276.5205	330.4716	441.0522	514.0457	524.0721	538.4546	589.878	601.7771	745.8859	835.2135	897.5176	951.2829	980.7806	1109.0036	1125.9976	1284.1508	1408.8623	1458.7721	1581.5184	1617.277	1652.3368	1788.7664	3167.0306	3598.2547	3738.6145
NC1=NOC=NC1=O	Nc1nocnc1=O	
InChI=1S/C3H3N3O2/c4-2-3(7)5-1-8-6-2/h1H,(H2,4,6)	InChI=1S/C3H3N3O2/c4-2-3(7)5-1-8-6-2/h1H,(H2,4,6)
