11
gdb 23994	5.44664	1.00036	0.84514	4.9309	79.61	-0.2599	-0.0828	0.177	1229.435	0.065995	-414.411594	-414.404366	-414.403421	-414.443611	26.086	
C	 0.1968653785	-1.1346204308	-0.0056375041	-0.36187
C	 0.0698516055	 0.0622647001	 0.0023199094	 0.210503
C	-0.1046805356	 1.4527755528	 0.0119512907	 0.197013
C	-1.2036236556	 2.2716150755	 0.0323239162	-0.187302
N	-0.8015321889	 3.5832261851	 0.0330604251	-0.280197
C	 0.4990698293	 3.5196105528	 0.0135038808	 0.299702
O	 1.0020105623	 2.2620236564	-0.0002975538	-0.186783
C	 1.4203754595	 4.5979060959	 0.0053666418	 0.256719
N	 2.1734149162	 5.4758773485	-0.0013025001	-0.314573
H	 0.3117873726	-2.1910381164	-0.0127074243	 0.212847
H	-2.2434481338	 1.9885678902	 0.0462397783	 0.153943
118.3494	121.1396	206.7176	206.9822	435.6633	484.3592	503.6634	537.3355	598.0877	599.1992	662.499	697.128	703.4061	741.641	881.0857	993.5557	1007.5651	1159.195	1219.3487	1274.2519	1334.8065	1523.5148	1583.1653	2239.3178	2359.5106	3278.5765	3498.3748
C#CC1=CN=C(O1)C#N	C#Cc1cnc(o1)C#N	
InChI=1S/C6H2N2O/c1-2-5-4-8-6(3-7)9-5/h1,4H	InChI=1S/C6H2N2O/c1-2-5-4-8-6(3-7)9-5/h1,4H
