8
gdb 23859	3.39755	2.48443	1.43506	0.8374	46.19	-0.2891	-0.1306	0.1584	720.7683	0.033974	-490.580575	-490.574503	-490.573559	-490.611321	21.297	
F	 0.0335072353	 0.0477233147	 0.0035874575	-0.009046
C	-0.0134875258	 1.3570360341	 0.0107196212	 0.276484
N	-1.1749231064	 1.8953134062	 0.0280976028	-0.080292
O	-1.2302698822	 3.2520983794	 0.0356045986	-0.220686
N	-0.0305266561	 4.0629456256	 0.0246324525	 0.100819
N	 1.0666902319	 3.5189910166	 0.0080318745	-0.133721
C	 1.2499319573	 2.087301904	-0.0016343707	 0.336203
O	 2.3495686659	 1.6105585395	-0.0180803363	-0.269761
69.5328	303.1532	314.052	388.4766	470.8697	502.654	548.0537	558.307	578.5044	742.3203	806.4377	945.5685	1011.9118	1142.8465	1416.3942	1625.5417	1646.0125	1842.1747
FC1=NON=NC1=O	Fc1nonnc1=O	
InChI=1S/C2FN3O2/c3-1-2(7)4-6-8-5-1	InChI=1S/C2FN3O2/c3-1-2(7)4-6-8-5-1
