9
gdb 130741	3.16979	1.43255	0.98665	2.6687	58.86	-0.2671	-0.1239	0.1432	1029.2344	0.041457	-524.64723	-524.640346	-524.639402	-524.679222	23.845	
O	 0.2983195321	 0.1025462072	 0.0014142198	-0.327947
C	 0.0474344363	 1.2566281421	 0.0095033144	 0.525103
O	-1.2024878577	 1.8119905544	 0.0273461967	-0.235546
C	-1.1286857684	 3.216949222	 0.034042438	 0.385703
C	 0.2950203882	 3.450710628	 0.0177387468	 0.280123
O	 0.9925810388	 2.2564642208	 0.0034306778	-0.237908
N	 0.916727577	 4.5834022779	 0.0164960708	 0.106888
N	 1.4400692136	 5.5923399734	 0.0154145133	-0.177927
O	-2.07985413	 3.9313284942	 0.0491740325	-0.31849
100.8997	147.1474	179.1549	292.5007	373.8365	469.9899	478.5016	554.4733	653.8042	709.1208	714.9071	765.7149	803.9387	930.7298	990.2322	1221.5324	1282.8327	1462.0211	1895.9501	1974.8614	2195.323
O=C1OC2=C(O1)N=NO2	O=C1OC(=O)[C](O1)[N][N]	
InChI=1S/C3N2O4/c6-3-7-1-2(8-3)9-5-4-1	InChI=1S/C3N2O4/c4-5-1-2(6)9-3(7)8-1
