11
gdb 23884	3.60003	1.52185	1.32943	2.6833	41.1	-0.3025	-0.0261	0.2764	891.8767	0.066905	-566.062177	-566.054193	-566.053249	-566.096295	26.053	
C	-0.0491227337	 1.3493247386	 0.0729123628	-0.247557
O	 0.0342541669	-0.0830668721	-0.0432798071	-0.219014
C	 0.6480510168	-0.5312373915	-1.135368013	 0.291926
O	 1.1289942915	 0.1257644555	-2.013932475	-0.335636
C	 0.6570883945	-2.0795076207	-1.1180801841	 0.234743
F	 1.2721288622	-2.5430595647	-2.1964681391	-0.044612
F	 1.292366429	-2.5299319674	-0.0323794152	-0.06808
F	-0.5928938331	-2.5515114898	-1.0984202201	-0.068426
H	 0.9519080385	 1.7858828918	 0.0891736448	 0.153662
H	-0.6078978713	 1.7645350866	-0.7687407001	 0.153508
H	-0.5680837713	 1.5369177138	 1.0114267661	 0.149486
24.9045	94.73	130.268	180.87	278.46	316.7173	370.481	419.1632	523.0763	582.3441	736.4995	787.5958	847.2217	996.5487	1164.8938	1177.6724	1203.7926	1220.3879	1258.9125	1363.1496	1476.1666	1482.2735	1493.5677	1861.9538	3060.3471	3139.4115	3176.4405
COC(=O)C(F)(F)F	COC(=O)C(F)(F)F	
InChI=1S/C3H3F3O2/c1-8-2(7)3(4,5)6/h1H3	InChI=1S/C3H3F3O2/c1-8-2(7)3(4,5)6/h1H3
