11
gdb 130588	2.20327	1.97043	1.04018	2.0539	72.68	-0.2638	-0.101	0.1628	1013.0189	0.065812	-451.572779	-451.565637	-451.564693	-451.604836	25.496	
O	 0.3055275966	 0.1561690709	-0.008201338	-0.323363
C	 0.1490375905	 1.3531358815	 0.0044504855	 0.3169
C	-1.1629778596	 2.0940287698	 0.0312621882	-0.168797
C	-0.9684316019	 3.4158175701	 0.0396483995	-0.168812
C	 0.5009626907	 3.7476669129	 0.0192365441	 0.316867
C	 1.1622658703	 2.4270811733	-0.0022513909	 0.10626
N	 2.4478744671	 2.2377498334	-0.0226439289	 0.133304
N	 3.5635621978	 2.0734755897	-0.039866469	-0.187804
O	 0.9966512784	 4.8484763801	 0.0207678978	-0.323349
H	-2.101225292	 1.5550203489	 0.041288241	 0.149411
H	-1.711983218	 4.2017847896	 0.0581236607	 0.149383
112.9363	124.3285	175.218	289.2996	338.8894	451.9654	536.9147	557.6474	599.1145	644.7946	685.7053	686.1209	746.1149	866.7392	985.7658	1028.6913	1036.0036	1156.4819	1166.6965	1319.4542	1424.47	1631.3838	1791.5362	1823.1927	2243.9186	3221.2843	3243.3026
O=C1C=CC2=C1N=NO2	O=C1C=CC(=O)[C]1[N][N]	
InChI=1S/C5H2N2O2/c8-3-1-2-4-5(3)6-7-9-4/h1-2H	InChI=1S/C5H2N2O2/c6-7-5-3(8)1-2-4(5)9/h1-2H
