11
gdb 9119	4.20527	0.93953	0.77165	6.035	65.23	-0.2975	-0.109	0.1885	1339.4654	0.069597	-397.367508	-397.359016	-397.358072	-397.402072	27.312	
O	-0.0560642972	 1.4783623344	 0.0109324052	-0.398789
C	-0.0190472724	 0.0650419667	 0.0022746941	-0.216661
C	-1.3750610514	-0.4625152478	 0.0125428768	 0.082046
C	-2.4865030905	-0.9331561064	 0.0207039205	 0.085028
C	-3.8036339953	-1.4959706161	 0.0303652892	 0.19378
O	-4.0531321664	-2.6798364345	 0.0261730518	-0.249428
C	-4.8877970083	-0.4957510831	 0.0461182718	 0.230629
N	-5.7479555085	 0.2766825465	 0.0585022511	-0.314406
H	 0.8530942896	 1.7952466658	 0.0044868378	 0.301974
H	 0.4928517951	-0.3330726473	-0.8896763292	 0.142914
H	 0.5103145153	-0.3434628482	 0.8791996809	 0.142914
43.7805	63.6857	130.7456	175.2768	215.896	248.0538	290.3078	398.8969	462.6706	546.3487	624.6574	696.7569	771.3168	947.1227	1004.8904	1079.104	1205.582	1243.155	1260.0708	1455.6886	1484.1544	1745.3467	2336.7064	2342.4832	2966.5172	2987.1258	3823.328
OCC#CC(=O)C#N	OCC#CC(=O)C#N	
InChI=1S/C5H3NO2/c6-4-5(8)2-1-3-7/h7H,3H2	InChI=1S/C5H3NO2/c6-4-5(8)2-1-3-7/h7H,3H2
