11
gdb 21905	5.79704	1.70002	1.31453	1.0106	57.57	-0.2517	-0.0969	0.1548	830.774	0.072829	-430.691831	-430.685582	-430.684637	-430.722465	23.139	
O	-0.0688657368	 1.2860776722	-0.2759695292	-0.37917
C	 0.0338803881	-0.0216777912	-0.0110231722	 0.491751
N	 1.2106627632	-0.5353953647	 0.0906694085	-0.204802
O	 1.2554731706	-1.9186930373	 0.3713623224	-0.273313
C	 0.1058185524	-2.6429141251	 0.5209147994	 0.399045
N	 0.0980763302	-3.8875102189	 0.7735354315	-0.515815
C	-1.1446955952	-1.8966403754	 0.3722394335	 0.004874
N	-1.2020012614	-0.64302201	 0.1179184638	-0.247124
H	 0.8287539026	 1.6408843652	-0.3499044771	 0.319147
H	 1.0485389361	-4.256429511	 0.8462893196	 0.238668
H	-2.0631718097	-2.4670910737	 0.4900797997	 0.166738
77.9279	297.5161	312.2917	365.287	454.3953	517.6195	530.7059	582.292	632.2075	779.6205	802.6911	824.0157	881.6416	948.2662	1002.0036	1005.355	1105.4335	1254.5723	1338.6236	1360.2534	1446.0981	1620.6432	1685.736	1723.7895	3174.2175	3473.1928	3772.0083
OC1=NOC(=N)C=N1	OC1=NOC(=C[N]1)[NH]	
InChI=1S/C3H3N3O2/c4-2-1-5-3(7)6-8-2/h1,4H,(H,6,7)	InChI=1S/C3H3N3O2/c4-2-1-5-3(7)6-8-2/h1,4H,(H,6,7)
