10
gdb 132183	3.31439	1.39124	0.97992	4.4818	51.88	-0.2797	-0.0639	0.2157	1017.2884	0.053069	-557.843763	-557.837149	-557.836204	-557.875327	23.963	
F	 0.0843716331	 0.0895249322	 0.0021197418	-0.027063
C	-0.0523597921	 1.3869568028	 0.0112728194	 0.417826
N	-1.1896706314	 1.9360556285	 0.0296456212	-0.403755
C	-1.2701198748	 3.3466621289	 0.0384114451	 0.326679
O	-2.3161666379	 3.9427164549	 0.0560393532	-0.318389
C	 0.0468024656	 4.0181443734	 0.0243044255	 0.10546
F	 0.0662896774	 5.3383172793	 0.0313300618	-0.036875
C	 1.184877257	 3.3169196729	 0.0050028705	-0.060047
O	 1.1632609103	 1.9457772832	-0.00222258	-0.180036
H	 2.1860972229	 3.7213072341	-0.0063507185	 0.1762
98.3893	194.4697	299.8799	381.4269	393.3838	405.9146	470.5052	526.142	637.1414	742.0127	756.5292	798.0521	798.5603	877.7396	981.7442	1130.0759	1247.1886	1291.4023	1362.6076	1397.2217	1689.6854	1732.9418	1825.4354	3255.9383
FC1=NC(=O)C(F)=CO1	Fc1nc(=O)c(F)co1	
InChI=1S/C4HF2NO2/c5-2-1-9-4(6)7-3(2)8/h1H	InChI=1S/C4HF2NO2/c5-2-1-9-4(6)7-3(2)8/h1H
