11
gdb 21837	8.00003	1.26514	1.1064	2.6924	55.31	-0.2656	-0.0392	0.2263	963.9456	0.071798	-434.540884	-434.534348	-434.533404	-434.572503	22.457	
O	-0.0658272474	 0.0124213579	 0.0903573833	-0.23106
C	-0.0232144227	 1.184758881	-0.0789860942	 0.16321
O	 1.0910082207	 1.9101816747	 0.3100135333	-0.227045
C	 1.0826157835	 3.2495574533	 0.1836539859	 0.547196
C	 2.1041767122	 4.1126950237	-0.052343543	-0.387227
C	 1.4487952246	 5.3709317654	-0.0113628716	 0.060229
N	 0.1626699434	 5.2759681824	 0.2219589162	-0.138749
O	-0.0762504191	 3.8950043983	 0.358272688	-0.215814
H	-0.7965138704	 1.81450367	-0.5396820072	 0.141207
H	 3.1394703421	 3.8820966296	-0.2299035352	 0.141361
H	 1.8763226431	 6.3542808536	-0.1498174156	 0.146692
63.5049	118.7761	175.2798	336.3335	451.9499	494.8368	638.0905	702.8794	795.3257	813.4232	901.2598	926.2969	930.4646	1019.3695	1034.4036	1050.6334	1073.1253	1227.5181	1294.502	1379.7907	1414.8616	1523.0991	1651.8556	1892.5011	3061.8324	3245.3534	3298.3116
O=COC1=CC=NO1	O=COc1ccno1	
InChI=1S/C4H3NO3/c6-3-7-4-1-2-5-8-4/h1-3H	InChI=1S/C4H3NO3/c6-3-7-4-1-2-5-8-4/h1-3H
