11
gdb 20481	5.23785	2.19484	1.56756	3.2719	52.26	-0.2142	-0.0103	0.2038	718.6401	0.073591	-434.480057	-434.474407	-434.473463	-434.509973	20.741	
C	 0.0418059492	 1.3958862193	-0.1263381517	 0.008781
O	 1.4418535042	 1.8051275437	 0.0354937807	-0.279415
C	 1.9660754801	 0.7007755147	 0.5942033566	 0.452107
C	 1.1456520253	-0.3636561404	 0.5924527614	 0.144651
O	-0.0475524363	-0.0354042211	-0.0247506123	-0.283082
C	 1.9247212154	-1.3872493354	 1.1501167735	-0.094799
N	 3.1330926856	-0.9345487177	 1.4722095963	-0.159605
O	 3.1537849849	 0.4558910423	 1.0944567552	-0.22195
H	-0.534261685	 1.864162262	 0.6827354041	 0.132938
H	-0.3002928829	 1.7165381632	-1.110931129	 0.151263
H	 1.7027566495	-2.4249478806	 1.3496137952	 0.149111
131.9864	235.0371	308.5182	461.3187	599.8299	643.819	704.9093	737.7267	758.119	804.0528	874.4414	890.5641	966.0343	1041.4494	1127.4517	1156.8701	1187.3882	1219.2882	1382.5354	1412.9076	1470.9663	1528.9568	1551.3209	1701.7413	3016.507	3133.7315	3255.0849
C1OC2=C(O1)C=NO2	C1Oc2c(O1)cno2	
InChI=1S/C4H3NO3/c1-3-4(8-5-1)7-2-6-3/h1H,2H2	InChI=1S/C4H3NO3/c1-3-4(8-5-1)7-2-6-3/h1H,2H2
