11
gdb 132850	3.13127	1.48601	1.00776	4.0164	56.86	-0.2486	-0.0757	0.1729	1024.333	0.064499	-533.801476	-533.794397	-533.793453	-533.833802	25.678	
F	 0.0417188205	 0.0318009258	-0.2442447975	-0.033959
C	-0.098205501	 1.3256485601	-0.0770675144	 0.302953
C	-1.2272910679	 1.9198394459	 0.2754229083	-0.202646
O	-1.2853727651	 3.2884505628	 0.4288568966	-0.213339
C	-0.1694531058	 4.0468713942	 0.2165442221	 0.269978
N	-0.1614946271	 5.301236997	 0.3409792005	-0.456281
C	 1.1205239551	 3.3518657775	-0.1872717508	 0.386457
O	 2.145093257	 3.9129702504	-0.3958881517	-0.254506
O	 1.0659349742	 1.976544007	-0.3126237616	-0.208506
H	-2.1580514435	 1.411961429	 0.4650699533	 0.16523
H	-1.0855213364	 5.6422070503	 0.6144419352	 0.244617
61.798	112.4458	331.0809	346.7913	366.9423	437.4347	452.4797	513.8379	593.474	603.4809	682.6331	765.0452	788.9895	807.566	916.4007	993.9618	1029.8481	1102.6974	1221.6342	1282.695	1335.4726	1371.7198	1735.4208	1804.9059	1897.054	3277.6391	3478.2903
FC1=COC(=N)C(=O)O1	FC1=CO[C]([NH])C(=O)O1	
InChI=1S/C4H2FNO3/c5-2-1-8-3(6)4(7)9-2/h1,6H	InChI=1S/C4H2FNO3/c5-2-1-8-3(6)4(7)9-2/h1,6H
