11
gdb 20692	2.37484	1.25229	0.84794	2.5389	53.11	-0.2821	-0.0417	0.2404	1241.0018	0.066227	-430.821166	-430.810736	-430.809792	-430.862812	29.238	
C	-0.1179031901	 1.7486978452	-0.0084375864	-0.462317
C	-0.0424642622	 0.2608220376	-0.2224164744	 0.378163
N	-1.3275786883	-0.3467220667	-0.1764081609	-0.432943
C	-1.6677675189	-1.5100489221	-0.3015227117	 0.603387
O	-2.1150138456	-2.5773944919	-0.4060128505	-0.263793
N	 1.0975850735	-3.2524129261	 0.8311586286	-0.0011
N	 2.0686837969	-3.6902467467	 0.562556846	-0.001716
O	 0.9668912759	-0.363497553	-0.4126184364	-0.286327
H	 0.8817429986	 2.1790141029	-0.0524748512	 0.151717
H	-0.7594439318	 2.2001985332	-0.7715292386	 0.157309
H	-0.579121898	 1.9593678875	 0.9614857654	 0.15762
11.3609	15.744	36.6163	45.0713	81.0957	88.4278	121.8386	125.5949	379.659	553.3874	572.3272	641.0136	660.4159	795.8302	992.749	1055.8796	1178.87	1390.9398	1460.016	1466.1665	1471.3638	1814.8413	2341.3075	2432.8529	3051.7255	3114.8866	3170.1071	11.3726	15.7424	36.6155	45.071	81.0953	88.4273	121.8386	125.5986	379.659	553.3872	572.3278	641.0138	660.4161	795.831	992.7485	1055.8789	1178.8693	1390.9389	1460.0156	1466.1654	1471.3623	1814.8417	2341.3074	2432.8528	3051.7256	3114.8868	3170.1071
CC1=NC(=O)N=NO1	CC(=O)N=C=O.N#N	
InChI=1S/C3H3N3O2/c1-2-4-3(7)5-6-8-2/h1H3	InChI=1S/C3H3NO2.N2/c1-3(6)4-2-5;1-2/h1H3;
