9
gdb 21737	5.64253	2.30037	1.63415	2.443	51.6	-0.2762	-0.1027	0.1734	664.2325	0.049482	-429.431758	-429.426659	-429.425715	-429.460889	19.145	
O	-0.0050096923	 1.2609398311	 0.0091631969	-0.150633
C	 1.270949373	 1.7446511429	-0.0007378363	-0.0697
C	 2.1104950381	 0.6758724332	-0.0146397514	 0.259471
O	 3.3683219888	 0.2612558959	-0.0290447913	-0.280716
N	 3.2096338237	-1.2811806688	-0.0358813462	 0.023106
N	 2.0157216736	-1.5735077562	-0.0259675795	-0.150993
C	 1.2339125959	-0.4277191815	-0.0121661088	 0.394586
N	-0.0414868479	-0.1198533446	 0.0017207152	-0.206035
H	 1.3687961069	 2.815980718	 0.0041460714	 0.180914
271.4971	340.221	358.5918	535.8822	592.5349	623.0918	709.715	755.1208	763.9641	782.6975	936.8312	945.6977	994.2334	1080.6561	1232.3228	1292.2306	1412.179	1526.8692	1593.8247	1674.2307	3297.87
O1C=C2ON=NC2=N1	o1cc2onnc2n1	
InChI=1S/C3HN3O2/c1-2-3(5-7-1)4-6-8-2/h1H	InChI=1S/C3HN3O2/c1-2-3(5-7-1)4-6-8-2/h1H
