11
gdb 132081	2.41822	1.86153	1.05183	3.9927	57.08	-0.2489	-0.056	0.1929	978.4064	0.066182	-537.990124	-537.983413	-537.982469	-538.02156	24.756	
F	 0.0365437943	 0.0491859335	 0.0030643711	-0.03535
C	-0.0085125167	 1.3681743413	 0.0104662494	 0.225812
C	-1.2150767477	 2.0022771826	 0.0305189504	-0.017957
F	-2.3568441377	 1.3316405142	 0.0429661564	-0.036277
C	-1.2847978312	 3.4489526329	 0.0389120259	 0.348317
O	-2.2750395777	 4.1467969953	 0.0562474669	-0.370275
N	 0.018314693	 4.009253706	 0.0236392602	-0.345647
C	 1.1607018184	 3.2862050064	 0.0040225663	 0.111879
N	 1.1911084698	 1.9900163711	-0.0030493544	-0.315786
H	 0.0469826299	 5.021129326	 0.0284285558	 0.279059
H	 2.0899398258	 3.8474674408	-0.0060455482	 0.156224
128.2933	204.1878	276.1028	306.7303	346.5625	502.6769	530.4475	542.1159	584.4325	665.2692	713.9869	743.5679	763.5596	885.7144	944.3809	1058.9382	1140.0524	1220.4246	1301.1125	1372.7649	1449.9366	1477.0227	1621.3861	1677.6945	1814.0341	3188.3104	3591.047
FC1=C(F)C(=O)NC=N1	Fc1c(F)c(=O)[nH]cn1	
InChI=1S/C4H2F2N2O/c5-2-3(6)7-1-8-4(2)9/h1H,(H,7,8,9)	InChI=1S/C4H2F2N2O/c5-2-3(6)7-1-8-4(2)9/h1H,(H,7,8,9)
