10
gdb 48191	1.68248	1.52992	1.38772	2.4154	61.94	-0.3343	-0.1087	0.2256	1020.777	0.051213	-430.465393	-430.456646	-430.455702	-430.499584	28.683	
O	-0.0944686443	 0.0071104479	 0.0024510602	-0.167574
C	-0.0347942491	 1.190017685	 0.0080509459	 0.17711
C	 1.3632235057	 1.9792911476	-0.0006788441	-0.317772
C	 2.4854441095	 1.0328938376	-0.0161862356	 0.352086
N	 3.35776623	 0.2790768586	-0.0283375464	-0.282139
C	 1.3565514862	 2.8249862185	-1.2057524479	 0.316313
N	 1.2822076255	 3.4655419741	-2.16298333	-0.280804
C	 1.3789527031	 2.811910248	 1.2133939955	 0.316305
N	 1.3223947744	 3.442057554	 2.1787157107	-0.280801
H	-0.895087941	 1.8822157288	 0.0199059018	 0.167275
65.4194	121.2523	129.7495	148.1295	165.0204	213.8956	362.4798	383.6328	471.6888	491.3708	570.3737	572.5487	576.8888	712.1368	910.8264	952.1602	1113.5281	1137.2366	1383.5402	1879.5974	2367.2214	2371.88	2385.1972	2994.2506
O=CC(C#N)(C#N)C#N	O=CC(C#N)(C#N)C#N	
InChI=1S/C5HN3O/c6-1-5(2-7,3-8)4-9/h4H	InChI=1S/C5HN3O/c6-1-5(2-7,3-8)4-9/h4H
