11
gdb 128863	9.8307	0.6763	0.63277	7.1262	82.34	-0.2667	-0.0681	0.1986	1580.1995	0.06804	-410.57373	-410.566636	-410.565692	-410.606126	25.008	
N	 0.0853007382	-3.7084912453	-0.0188422269	-0.331247
C	 0.0589034953	-2.5464245386	-0.0120791873	 0.173306
C	 0.0209156806	-1.1841103612	-0.0040557457	 0.211085
C	-0.0242933372	 0.025221054	 0.0032197872	 0.009898
C	-0.0747212644	 1.4305086605	 0.0116708435	 0.15287
C	-1.1841953069	 2.2558991282	 0.0311692663	-0.184988
N	-0.6612166847	 3.4953528445	 0.03098972	-0.156426
N	 0.691354226	 3.4670230017	 0.0126071497	-0.098325
N	 1.051761449	 2.2268002335	 0.0009050085	-0.246853
H	-2.2412518993	 2.0535920205	 0.0442799772	 0.172992
H	-1.1361503466	 4.384955912	 0.0423038028	 0.297688
78.3894	87.5563	232.8518	237.205	434.0132	480.1352	509.5202	590.4936	597.1817	606.1189	696.6278	738.8899	826.6577	945.8142	977.9381	1027.74	1071.9264	1131.7738	1261.3263	1305.7689	1371.3243	1489.6234	1569.2153	2265.8608	2386.4639	3295.1953	3650.3441
N#CC#CC1=CNN=N1	N#CC#Cc1c[nH]nn1	
InChI=1S/C5H2N4/c6-3-1-2-5-4-7-9-8-5/h4H,(H,7,8,9)	InChI=1S/C5H2N4/c6-3-1-2-5-4-7-9-8-5/h4H,(H,7,8,9)
