11
gdb 23755	3.32771	2.33054	1.37063	3.0354	55.2	-0.2587	-0.0367	0.2221	782.4336	0.072751	-446.706029	-446.700271	-446.699327	-446.736051	21.749	
F	 0.012577785	 0.0130908699	 0.003690542	-0.055495
C	-0.0312470589	 1.3426640017	 0.0109536375	 0.129587
C	-1.2321309558	 2.023637824	 0.0300185914	-0.199806
C	-1.19910042	 3.4191490548	 0.036604756	-0.115965
C	 0.0353868756	 4.0529143507	 0.0237161757	-0.002357
N	 1.1985587002	 3.3874932317	 0.0052169873	-0.301636
C	 1.1559542747	 2.081155805	-0.0007910972	 0.226526
F	 2.3068661843	 1.4222357592	-0.0191150044	-0.052557
H	-2.1607817786	 1.4648844722	 0.0393002971	 0.132739
H	-2.1157828643	 3.9961686643	 0.0514425169	 0.115181
H	 0.1064012078	 5.1362097965	 0.0282297975	 0.123783
175.3605	289.0742	316.6086	481.0076	483.1654	556.1791	585.9785	588.988	763.2145	784.8083	824.0209	885.0544	951.9637	980.8018	1079.2144	1124.989	1222.8469	1303.0999	1318.598	1343.1308	1490.8449	1515.7426	1633.9775	1640.8195	3176.8506	3201.9887	3215.7596
FC1=CC=CN=C1F	Fc1cccnc1F	
InChI=1S/C5H3F2N/c6-4-2-1-3-8-5(4)7/h1-3H	InChI=1S/C5H3F2N/c6-4-2-1-3-8-5(4)7/h1-3H
