11
gdb 43436	3.41074	1.30623	0.94451	1.3969	68.71	-0.3109	-0.132	0.1789	1099.9842	0.066755	-451.608106	-451.601088	-451.600143	-451.639966	25.332	
N	-0.0817241551	 1.2728341442	 0.0103094535	-0.495709
C	-0.0321761244	 0.0168139668	 0.0036006673	 0.365797
O	 1.1082882214	-0.7551973396	-0.0080133773	-0.225847
C	 0.754148565	-2.1055964194	-0.0124987083	 0.463702
O	 1.5632925609	-2.9788852658	-0.0223733315	-0.297834
C	-0.7272392717	-2.1652261414	-0.0028167704	-0.394693
C	-1.1934595583	-0.9062809175	 0.0067111599	 0.179255
C	-2.5402771136	-0.4621788842	 0.0180325372	 0.276783
N	-3.6437147847	-0.1157340655	 0.0272219049	-0.306121
H	 0.8517544812	 1.6872947822	 0.0061286821	 0.256853
H	-1.2768136308	-3.0939374796	-0.0038339273	 0.177814
130.6028	143.3047	171.1417	301.0245	353.9232	459.576	523.5215	524.8569	617.1591	678.5979	729.6648	772.7256	796.3376	902.8191	910.4308	921.6031	1003.2132	1115.4145	1174.5335	1267.5407	1357.7662	1656.7151	1769.8206	1900.5611	2358.6398	3269.0065	3491.3606
N=C1OC(=O)C=C1C#N	[NH]C1=C([CH]C(=O)O1)C#N	
InChI=1S/C5H2N2O2/c6-2-3-1-4(8)9-5(3)7/h1,7H	InChI=1S/C5H2N2O2/c6-2-3-1-4(8)9-5(3)7/h1,7H
