11
gdb 35164	2.56689	1.33785	1.02348	4.3495	66.56	-0.3303	-0.0694	0.2609	1095.4521	0.065466	-410.570809	-410.562779	-410.561835	-410.60389	27.769	
N	-0.1385586047	-1.1435886155	-0.0389119948	-0.296872
C	-0.059550776	 0.0075598846	 0.0073115076	 0.365679
C	 0.0091086419	 1.448340631	 0.0263934313	-0.22867
N	 0.5371763369	 2.0798365572	 1.2291828283	-0.299698
C	 1.3523863858	 2.1682457062	 0.0052116593	 0.029168
C	 2.5928904613	 1.4221566	 0.0115195781	 0.312958
N	 3.5832626195	 0.8296025016	-0.0049426011	-0.300885
C	 1.385400911	 3.419809016	-0.7215165647	 0.260368
N	 1.3802470863	 4.4337104244	-1.2755045979	-0.299752
H	-0.7827145442	 1.9449342569	-0.5286276119	 0.175633
H	 0.0732687023	 2.9665718876	 1.4164663458	 0.282071
97.6294	113.7406	137.6354	216.9741	243.3025	280.3604	450.6167	486.5777	494.6641	584.6821	592.4317	633.4566	670.1186	794.9478	916.8344	975.4396	1022.3774	1067.862	1189.8916	1231.1441	1329.2092	1422.8404	2363.6505	2374.0457	2377.3343	3156.1575	3512.2233
N#CC1NC1(C#N)C#N	N#C[C@H]1NC1(C#N)C#N	
InChI=1S/C5H2N4/c6-1-4-5(2-7,3-8)9-4/h4,9H	InChI=1S/C5H2N4/c6-1-4-5(2-7,3-8)9-4/h4,9H/t4-/m1/s1
