11
gdb 23721	6.0671	1.55896	1.24027	3.9423	54.93	-0.2523	-0.0556	0.1967	851.1319	0.073255	-438.737735	-438.731754	-438.73081	-438.767897	22.438	
O	 0.0857081968	 1.3596775046	 0.1326328597	-0.432849
C	 0.0658537357	 0.0062234095	 0.0379856914	 0.304623
C	 0.0858493945	-0.7059001292	-1.1591056818	-0.101329
N	 0.0646652239	-2.0390814495	-1.1947972129	-0.290321
C	 0.0231659547	-2.6364783503	-0.0196069051	 0.348804
F	 0.0037021647	-3.9573676356	-0.0458170128	-0.05992
N	 0.000930308	-2.0859944176	 1.1819505364	-0.294524
C	 0.0223486602	-0.7554309634	 1.207374197	-0.03432
H	 0.1154376727	 1.7470929828	-0.7491944993	 0.30692
H	 0.1198718628	-0.1893988955	-2.118137493	 0.115904
H	 0.0048029461	-0.2670010957	 2.1778901606	 0.137012
138.9437	336.773	349.3096	400.2533	441.4099	494.5392	511.8393	545.864	661.4485	792.4557	813.6446	903.2764	940.4304	975.5681	1048.3671	1189.8959	1287.3814	1293.1036	1321.2281	1376.3809	1453.8239	1500.5253	1613.2204	1645.423	3132.2907	3174.8205	3812.8163
OC1=CN=C(F)N=C1	Oc1cnc(F)nc1	
InChI=1S/C4H3FN2O/c5-4-6-1-3(8)2-7-4/h1-2,8H	InChI=1S/C4H3FN2O/c5-4-6-1-3(8)2-7-4/h1-2,8H
