11
gdb 132328	1.9747	1.54781	0.86769	1.7253	59.26	-0.2644	-0.0616	0.2029	1164.5331	0.064084	-533.864697	-533.856746	-533.855802	-533.898176	27.476	
O	-0.2642872124	 1.4860908128	 0.0103083963	-0.3803
C	 0.0476977311	 0.172250337	 0.0014577098	 0.441246
C	-1.1353605354	-0.6680357124	 0.0031588475	-0.383723
C	-1.0618935026	-2.0131073018	-0.0045719308	 0.379676
F	-2.1872800135	-2.7093386041	-0.0022852797	-0.047519
N	 0.0143975296	-2.8344710354	-0.0147205489	-0.418222
C	 1.2317673242	-2.7090373866	-0.0204994421	 0.588754
O	 2.3812507934	-2.8515816446	-0.0273722827	-0.243715
O	 1.2030483415	-0.2147600366	-0.0067924595	-0.377866
H	 0.5790751062	 1.9627670257	 0.008434617	 0.305241
H	-2.1122071621	-0.2064519241	 0.0108851731	 0.136428
77.4647	119.0184	131.8891	185.744	241.2765	391.0697	393.2284	538.2646	578.7067	598.7141	609.7177	665.2922	681.5363	766.4684	833.8178	866.041	1011.3692	1137.981	1244.0007	1282.8892	1412.0938	1556.3687	1674.1833	1782.2761	2352.1391	3238.9852	3759.21
OC1=CC(F)=NC(=O)O1	OC(=O)C=C(F)N=C=O	
InChI=1S/C4H2FNO3/c5-2-1-3(7)9-4(8)6-2/h1,7H	InChI=1S/C4H2FNO3/c5-3(6-2-7)1-4(8)9/h1H,(H,8,9)
