9
gdb 23851	5.91029	1.65164	1.2909	3.8771	48.1	-0.2963	-0.1267	0.1696	798.2134	0.047555	-474.601802	-474.595891	-474.594947	-474.632547	21.005	
F	 0.0637609895	 0.0297913866	 0.0023008978	-0.036676
C	-0.0193731728	 1.3454827194	 0.010473429	 0.331252
N	-1.185592355	 1.8669538312	 0.0284373913	-0.092476
O	-1.2104252014	 3.2416416055	 0.036446717	-0.242691
C	-0.0472923328	 4.0381111577	 0.0259931376	 0.499428
O	-0.1999294565	 5.2180161331	 0.0338628577	-0.298336
N	 1.196770822	 3.3911496209	 0.0062356651	-0.272733
C	 1.205729831	 2.1086740549	-0.0010282034	-0.057249
H	 2.1576206362	 1.5777922506	-0.016171722	 0.169481
56.5731	318.4191	369.326	371.1176	493.9493	520.8879	549.5168	627.5752	768.2172	798.4198	815.2437	900.4161	986.1198	1058.526	1131.5413	1317.6888	1449.1485	1610.0068	1704.5249	1885.022	3142.0569
FC1=NOC(=O)N=C1	Fc1noc(=O)nc1	
InChI=1S/C3HFN2O2/c4-2-1-5-3(7)8-6-2/h1H	InChI=1S/C3HFN2O2/c4-2-1-5-3(7)8-6-2/h1H
