11
gdb 130917	2.78037	1.33073	0.89999	2.3183	60.16	-0.2966	-0.1144	0.1822	1144.403	0.063785	-488.635856	-488.628271	-488.627327	-488.669114	25.282	
O	-0.0456492451	 0.0000630024	-0.0006739298	-0.217417
C	-0.0007020603	 1.2005782524	 0.0067577688	 0.098449
C	 1.2663274594	 1.9835301126	-0.0008197968	 0.171701
N	 2.4431199691	 1.4037385945	-0.0178601133	-0.095626
O	 3.3471857671	 2.4154237177	-0.0196697449	-0.11881
N	 2.7564522506	 3.6367515663	-0.004307644	-0.095626
C	 1.4655131285	 3.403050025	 0.0079018162	 0.171701
C	 0.4628746256	 4.5043151353	 0.0270358728	 0.098449
O	 0.7500664949	 5.6708416449	 0.0340679956	-0.217417
H	-0.9197378288	 1.8212287472	 0.0200209565	 0.102298
H	-0.5915009609	 4.1604450819	 0.034472369	 0.102298
75.0026	93.9762	152.3563	216.4817	243.3153	306.3297	402.1672	533.8427	661.9686	715.4096	757.5721	830.6338	927.8252	950.4543	1019.2757	1032.5493	1087.1366	1202.3731	1368.0551	1425.6957	1459.5094	1484.6435	1557.7199	1822.5584	1823.1498	2915.379	2933.0182
O=CC1=NON=C1C=O	O=Cc1nonc1C=O	
InChI=1S/C4H2N2O3/c7-1-3-4(2-8)6-9-5-3/h1-2H	InChI=1S/C4H2N2O3/c7-1-3-4(2-8)6-9-5-3/h1-2H
