11
gdb 130580	3.79128	1.37504	1.00906	4.659	66.	-0.315	-0.1106	0.2044	1046.6781	0.0672	-447.739109	-447.732125	-447.731181	-447.771297	24.246	
O	 0.0069209196	-0.0382713995	 0.0035510801	-0.252016
C	-0.0603809623	 1.1552788675	 0.006890341	 0.402153
C	 1.1206335406	 2.0236357796	 0.0008275222	 0.255653
N	 2.1213389261	 2.6002951164	-0.0046974035	-0.305114
N	-1.2738048432	 1.873691763	 0.0170044439	 0.029711
N	-1.3011581107	 3.2210665927	 0.0203986473	-0.189333
C	-2.589075555	 3.4978240688	 0.0300564348	-0.040887
C	-3.3190938544	 2.2786968562	 0.0321303407	-0.03282
N	-2.4726536196	 1.2672871087	 0.0238094573	-0.181661
H	-2.9413174301	 4.5173434183	 0.0349688741	 0.157952
H	-4.384912091	 2.1112405384	 0.0391000522	 0.156364
77.176	143.1868	156.5868	270.9004	319.0444	478.7314	505.978	667.5753	669.7877	689.3988	758.6882	879.5155	928.5624	941.2912	971.8307	1052.6856	1076.1548	1196.4221	1279.4488	1316.991	1395.1074	1435.4777	1551.1296	1833.7205	2357.2908	3265.0493	3279.72
O=C(C#N)N1N=CC=N1	O=C(C#N)n1nccn1	
InChI=1S/C4H2N4O/c5-3-4(9)8-6-1-2-7-8/h1-2H	InChI=1S/C4H2N4O/c5-3-4(9)8-6-1-2-7-8/h1-2H
