10
gdb 21376	5.55601	2.36018	1.6565	5.7129	53.8	-0.2738	-0.0676	0.2062	670.5099	0.063527	-409.594958	-409.589907	-409.588962	-409.623997	19.402	
N	-0.0466994521	 1.350395142	 0.0101975127	-0.403168
C	 1.285305986	 1.7599931549	-0.000680805	 0.044839
N	 2.1743181672	 0.8042370918	-0.0145954553	-0.318274
C	 1.3944810732	-0.339266086	-0.0130398724	 0.379432
N	 1.5320480347	-1.6389853591	-0.0213715427	-0.193643
O	 0.2364310415	-2.1054117047	-0.0111180137	-0.155025
N	-0.7284869616	-1.0883614716	 0.0038406648	-0.230924
C	 0.0097338722	-0.0201888128	 0.0023295455	 0.425974
H	-0.8577141933	 1.9447114893	 0.0217805546	 0.290847
H	 1.5244232221	 2.8151582961	 0.0026356614	 0.159942
283.5386	345.6155	418.4356	518.001	587.8056	634.4011	738.8538	750.452	803.5504	830.7957	889.2778	910.0957	947.4518	1057.8155	1077.4002	1214.5358	1323.0872	1379.8524	1440.485	1536.0531	1576.7794	1699.8328	3241.2774	3679.6323
N1C=NC2=NON=C12	[nH]1cnc2nonc12	
InChI=1S/C3H2N4O/c1-4-2-3(5-1)7-8-6-2/h1H,(H,4,5,6,7)	InChI=1S/C3H2N4O/c1-4-2-3(5-1)7-8-6-2/h1H,(H,4,5,6,7)
