9
gdb 21875	2.33275	1.3311	0.88728	1.6385	45.56	-0.2975	-0.0296	0.2679	1151.5556	0.044471	-466.765846	-466.756313	-466.755368	-466.80586	26.631	
O	-0.1252990403	 1.5273990453	-0.4032434877	-0.360024
C	-0.1137679278	 0.2819766024	 0.0934975978	 0.461895
N	-1.3183742587	-0.3400934383	-0.2352489493	-0.428362
C	-1.7256147044	-1.4614087183	 0.0075046237	 0.618413
O	-2.2333593912	-2.4914951479	 0.1725240656	-0.256001
N	 1.1515826975	-3.1566881834	-0.3045807874	-0.002799
N	 2.0801195497	-3.6015351159	 0.0784562226	 0.001343
O	 0.7913954613	-0.2032392792	 0.718172554	-0.353789
H	 0.722047874	 1.9233369153	-0.1547882993	 0.319323
14.8163	21.6736	39.6277	47.297	85.6835	96.6795	128.3344	489.1157	564.9254	605.2518	631.5963	688.252	775.5972	859.5755	1186.1515	1362.9775	1512.4156	1829.1289	2365.8398	2433.6216	3781.7856	14.8152	21.678	39.6309	47.2979	85.6849	96.6795	128.3342	489.1157	564.9253	605.2522	631.596	688.2519	775.5971	859.5754	1186.1515	1362.9772	1512.4155	1829.1286	2365.8393	2433.6216	3781.7861
OC1=NC(=O)N=NO1	OC(=O)N=C=O.N#N	
InChI=1S/C2HN3O3/c6-1-3-2(7)8-5-4-1/h(H,3,6,7)	InChI=1S/C2HNO3.N2/c4-1-3-2(5)6;1-2/h(H,5,6);
