11
gdb 133615	4.80597	0.66627	0.65489	4.0403	61.12	-0.3026	-0.0569	0.2457	1566.1488	0.061736	-545.904666	-545.896425	-545.89548	-545.939007	28.186	
F	-0.0047406729	 0.0746501018	-0.1005267883	-0.065198
C	-0.0335464173	 1.4063070894	-0.0103458159	 0.292744
F	 1.219798602	 1.8567219401	-0.1027219823	-0.065203
F	-0.7246786544	 1.8799260909	-1.0539297215	-0.065819
C	-0.6984575786	 1.8647942761	 1.2900732613	-0.504901
C	-0.0083609506	 1.392016105	 2.4753085305	 0.096834
C	 0.5595164496	 1.0028736376	 3.4656259367	 0.058234
C	 1.2014041234	 0.5633093688	 4.5882314665	 0.220309
N	 1.7450860333	 0.1908794254	 5.5442984453	-0.32746
H	-0.7310319356	 2.9595546235	 1.2742419919	 0.180229
H	-1.732135339	 1.5026895313	 1.2760102859	 0.180231
49.	68.0857	153.9241	191.8689	321.2081	341.9013	375.7933	410.6043	533.5422	535.0171	581.1759	587.1889	657.0687	770.0538	847.4604	923.3665	1144.7065	1172.1327	1198.6693	1265.056	1312.6936	1371.9496	1446.9081	2275.9845	2412.2497	3053.2188	3098.2492
FC(F)(F)CC#CC#N	FC(F)(F)CC#CC#N	
InChI=1S/C5H2F3N/c6-5(7,8)3-1-2-4-9/h3H2	InChI=1S/C5H2F3N/c6-5(7,8)3-1-2-4-9/h3H2
