11
gdb 123309	2.01981	1.90838	0.98126	4.6923	71.21	-0.2719	-0.0705	0.2014	1073.9911	0.065643	-414.374581	-414.367316	-414.366372	-414.406679	26.359	
C	 0.0803224918	-1.1869465931	-0.0045632501	-0.397119
C	 0.0256828331	 0.0142757012	 0.0028153745	 0.209393
C	-0.0143651384	 1.4226465795	 0.0110366953	-0.05724
C	-1.0915875677	 2.2616555077	 0.0292433452	 0.001013
O	-0.6938160234	 3.5385897459	 0.0312273622	-0.14445
N	 0.6819744483	 3.6014287969	 0.0141893788	-0.181009
C	 1.086313587	 2.348072303	 0.0021897089	 0.238424
C	 2.4738223634	 2.0317541493	-0.0170765789	 0.260702
N	 3.5913858783	 1.7375306148	-0.0328121341	-0.32112
H	 0.1321353073	-2.2482417612	-0.011230224	 0.207549
H	-2.1555388196	 2.087551926	 0.0417341122	 0.183856
101.0549	159.1267	195.4009	204.7623	443.0146	459.1467	517.2472	533.7181	607.953	621.529	631.729	650.1047	685.1355	757.1613	851.6512	932.2677	965.5758	1153.2691	1189.08	1290.2066	1383.1894	1479.6148	1605.6327	2248.4806	2369.2154	3280.368	3498.1884
C#CC1=CON=C1C#N	C#Cc1conc1C#N	
InChI=1S/C6H2N2O/c1-2-5-4-9-8-6(5)3-7/h1,4H	InChI=1S/C6H2N2O/c1-2-5-4-9-8-6(5)3-7/h1,4H
