11
gdb 130480	2.45165	1.89934	1.07022	0.7202	73.55	-0.2682	-0.1164	0.1519	989.2289	0.066412	-447.733869	-447.726824	-447.72588	-447.765855	24.548	
O	-0.040060797	 1.9365104061	 0.0133126168	-0.285848
C	 1.1196916724	 2.2913468439	 0.0037946557	 0.087429
C	 2.2312625236	 1.3413579527	-0.0122700361	 0.14258
N	 3.5211411288	 1.6528453492	-0.0233414549	-0.292943
C	 4.1649868948	 0.4438028402	-0.0358318758	 0.028844
N	 3.3987160914	-0.6410173794	-0.0342809332	-0.302402
C	 2.1507987859	-0.0866214	-0.0192020679	 0.367586
N	 1.0473204771	-0.8250827451	-0.0125100063	 0.142958
N	 0.1099773193	-1.4385459158	-0.0066505767	-0.13934
H	 1.420669787	 3.3562496742	 0.0065137105	 0.113958
H	 5.2444408367	 0.377910884	-0.0467873021	 0.137178
123.9452	125.4664	197.5531	229.3815	280.7934	472.7062	540.5591	550.6632	653.9298	657.9433	693.3572	776.9334	920.2132	940.926	1040.5734	1155.8782	1190.3186	1291.7769	1314.7908	1354.5572	1404.3988	1456.2382	1529.4405	1774.1619	2269.7377	2962.7411	3242.4318
O1C=C2N=CN=C2N=N1	O=Cc1ncnc1[N][N]	
InChI=1S/C4H2N4O/c1-3-4(6-2-5-3)7-8-9-1/h1-2H	InChI=1S/C4H3N4O/c5-8-4-3(1-9)6-2-7-4/h1-2H,(H,6,7)
