11
gdb 129153	3.19399	1.54139	1.03966	1.804	72.14	-0.2749	-0.1017	0.1731	1022.1599	0.063166	-447.586044	-447.578495	-447.577551	-447.618954	27.347	
N	-0.0378384513	 1.3105750158	-0.1928541283	-0.474594
C	-0.0292942454	 0.0562667135	-0.0049414179	 0.305616
N	 1.1967230521	-0.642721325	 0.2382119095	-0.143712
N	 1.2569855609	-1.8494250639	 0.4251089461	 0.066119
O	 0.0221823579	-2.62909149	 0.4017103322	-0.231867
N	-1.1885623862	-2.0566904826	 0.1794777196	-0.124111
C	-1.2339042291	-0.7722968527	-0.0170250782	 0.140116
C	-2.5064161549	-0.1889912238	-0.2487579131	 0.347426
C	-3.576293396	 0.3220965151	-0.4466489774	-0.350873
H	 0.9186121407	 1.6721916334	-0.1386596578	 0.24623
H	-4.5219241885	 0.7746913302	-0.6216645746	 0.219649
33.4816	142.9968	186.2678	373.0783	378.1148	414.4105	454.1625	486.6046	557.8631	564.5689	587.7449	668.1739	682.6882	730.336	814.1125	909.8835	944.0675	977.3008	1064.7301	1233.3482	1395.4064	1561.6968	1653.0502	1725.6217	2240.1614	3448.9195	3497.7914
N=C1N=NON=C1C#C	[NH]C1=N[N]ON=C1C#C	
InChI=1S/C4H2N4O/c1-2-3-4(5)6-8-9-7-3/h1,5H	InChI=1S/C4H2N4O/c1-2-3-4(5)6-8-9-7-3/h1,5H
