9
gdb 128889	2.0226	1.96007	0.99542	1.9744	61.91	-0.3475	-0.1226	0.2249	1027.3935	0.042847	-446.487256	-446.48046	-446.479516	-446.519111	23.515	
N	 0.0719440229	-1.1271186156	-0.0043510641	-0.298527
C	 0.0189540377	 0.0270619835	 0.0026755974	 0.279448
C	-0.0002930114	 1.4461465652	 0.010793907	 0.187822
N	-1.1099171481	 2.1448339074	 0.028447142	-0.109548
O	-0.7194890291	 3.443412343	 0.0307922551	-0.118351
N	 0.6294520272	 3.5806857192	 0.0147526277	-0.109573
C	 1.1050994287	 2.3586648706	 0.0019965433	 0.18778
C	 2.4946887255	 2.0707115772	-0.0169446372	 0.279467
N	 3.6179599766	 1.8004951294	-0.0324628711	-0.298517
105.2738	163.5504	205.114	214.7715	465.3848	476.8669	525.4342	557.4899	636.0536	648.5841	650.6967	789.288	931.871	946.1916	1074.9725	1227.193	1378.6702	1495.2139	1564.5126	2373.8017	2376.8251
N#CC1=NON=C1C#N	N#Cc1nonc1C#N	
InChI=1S/C4N4O/c5-1-3-4(2-6)8-9-7-3	InChI=1S/C4N4O/c5-1-3-4(2-6)8-9-7-3
