10
gdb 5663	5.66163	2.39746	1.68425	0.0003	52.84	-0.2403	-0.0358	0.2045	663.8171	0.063909	-413.47389	-413.469016	-413.468072	-413.502892	18.438	
O	-0.0705159445	 1.3336040707	 0.0098739867	-0.189439
C	 1.2598973222	 1.6978303979	-0.0009207347	 0.049633
N	 2.1349045978	 0.7278918722	-0.01458903	-0.346416
C	 1.3129895878	-0.3619711424	-0.0122171911	 0.320794
C	 0.0089570639	-0.0212727609	 0.0021698662	 0.320794
N	-0.8129582022	-1.1111357367	 0.0045052724	-0.346416
C	 0.0620515413	-2.0810754422	-0.0089191475	 0.049633
O	 1.3924621738	-1.7168475988	-0.0199823744	-0.189439
H	 1.454637965	 2.7577359619	 0.0027067769	 0.165427
H	-0.1326887251	-3.1409812217	-0.0125057647	 0.165427
215.2885	373.6358	498.0353	622.999	650.7797	709.894	769.0286	771.3177	789.4593	812.7019	907.0122	961.4164	1042.945	1081.0314	1166.1756	1263.4142	1316.8843	1432.694	1435.9766	1503.8143	1511.023	1632.674	3292.0006	3292.4548
O1C=NC2=C1N=CO2	o1cnc2c1nco2	
InChI=1S/C4H2N2O2/c1-5-3-4(7-1)6-2-8-3/h1-2H	InChI=1S/C4H2N2O2/c1-5-3-4(7-1)6-2-8-3/h1-2H
