11
gdb 129309	3.80106	1.23891	0.93436	2.0438	70.96	-0.2885	-0.1343	0.1541	1115.221	0.065071	-447.683876	-447.67661	-447.675666	-447.716084	26.017	
N	-0.067560495	 1.2910151212	 0.291695255	-0.509864
C	-0.035423137	 0.071022894	-0.0514571847	 0.44735
O	 1.1300363046	-0.5755348319	-0.3945469015	-0.287721
N	 1.1470655023	-1.9851802189	-0.7882415066	 0.065548
N	 0.0962234068	-2.6099761882	-0.8141337971	-0.14158
C	-1.148657009	-2.0267314499	-0.4774402845	 0.231095
C	-1.2385526201	-0.7377595271	-0.1070250832	-0.206179
C	-2.270901128	-2.905044881	-0.5636690386	 0.276813
N	-3.1900292136	-3.603845733	-0.6285875596	-0.299881
H	 0.8649633564	 1.7073153548	 0.2763198115	 0.245383
H	-2.1759525674	-0.26502644	 0.1558146794	 0.179037
101.6159	130.4572	154.6125	310.58	343.2552	445.0142	483.2573	510.9581	564.5433	662.1434	685.3839	739.0808	753.5294	880.2136	896.6423	958.8946	960.5187	1091.2787	1170.7334	1279.7584	1343.0039	1627.8052	1664.0045	1723.7389	2358.3481	3236.407	3486.9756
N=C1ON=NC(=C1)C#N	[NH]C1=CC(=N[N]O1)C#N	
InChI=1S/C4H2N4O/c5-2-3-1-4(6)9-8-7-3/h1,6H	InChI=1S/C4H2N4O/c5-2-3-1-4(6)9-8-7-3/h1,6H
