11
gdb 48149	4.0584	0.88719	0.79742	2.0649	60.46	-0.2926	-0.1156	0.177	1332.5929	0.062619	-488.699497	-488.690829	-488.689885	-488.734798	28.261	
N	 0.1166939705	 1.30528878	-0.8176288601	-0.428599
C	-0.0190426306	 0.175657276	-0.2842591912	 0.328943
O	-1.2379694653	-0.4590184253	-0.2318258632	-0.249743
C	-2.3334352371	 0.192090127	 0.3170268198	 0.366997
O	-2.3093936815	 1.2202908155	 0.9074940499	-0.267404
C	-3.5689101613	-0.6855853978	 0.0526008326	 0.085044
O	-4.6488705678	-0.3649443835	 0.4526870726	-0.185018
C	 1.0310368933	-0.6432038556	 0.2819283376	 0.256042
N	 1.9023023237	-1.2660494922	 0.7171639869	-0.303951
H	 1.0859516273	 1.6205504676	-0.7986298722	 0.269909
H	-3.3673936412	-1.6072276316	-0.5256864827	 0.127778
34.8577	53.6646	115.8316	144.8678	210.6902	268.8277	312.0269	404.8573	475.1376	561.5821	605.939	677.7001	779.3829	857.0262	881.5446	931.6079	1013.4926	1043.1934	1115.6228	1308.6573	1396.5845	1720.0474	1849.1645	1893.0537	2352.5059	2962.9026	3515.7415
N=C(OC(=O)C=O)C#N	[NH][C](OC(=O)C=O)C#N	
InChI=1S/C4H2N2O3/c5-1-3(6)9-4(8)2-7/h2,6H	InChI=1S/C4H2N2O3/c5-1-3(6)9-4(8)2-7/h2,6H
