11
gdb 130551	3.7956	1.22904	0.92841	1.5797	65.11	-0.2966	-0.1041	0.1925	1123.4021	0.064475	-451.472341	-451.464969	-451.464025	-451.505048	25.843	
O	-0.0368272598	-0.0407821426	 0.0029885176	-0.281997
C	-0.0269652789	 1.1735400689	 0.0062293997	 0.150466
C	 1.189444118	 1.9512867776	 0.0002436846	 0.300706
C	 2.2133208747	 2.5824541446	-0.0048689077	-0.400937
C	-1.3074771398	 1.9248538071	 0.0168110304	 0.265731
N	-1.3992440905	 3.2315025815	 0.0209962784	-0.154443
O	-2.7234578258	 3.5082243757	 0.0305664769	-0.136071
N	-3.4827038262	 2.3590440982	 0.0324872965	-0.063088
C	-2.6247399697	 1.3811775007	 0.0241005448	-0.086035
H	 3.1178208926	 3.1417012124	-0.0094463677	 0.226725
H	-2.9337449447	 0.3485248057	 0.0233386865	 0.178942
64.0402	115.0926	182.4578	230.6349	281.4905	438.2478	494.5756	651.4285	654.7693	667.888	681.6452	722.1624	808.6878	857.1994	926.3312	951.1429	994.9768	1041.4606	1083.897	1216.2418	1437.8508	1462.8232	1589.0305	1743.8697	2223.2742	3287.3862	3492.5455
O=C(C#C)C1=NON=C1	O=C(C#C)c1nonc1	
InChI=1S/C5H2N2O2/c1-2-5(8)4-3-6-9-7-4/h1,3H	InChI=1S/C5H2N2O2/c1-2-5(8)4-3-6-9-7-4/h1,3H
