9
gdb 133422	3.33537	1.43638	1.00401	2.0036	48.51	-0.2985	-0.0975	0.201	984.8523	0.040506	-573.854923	-573.848379	-573.847435	-573.886555	23.274	
F	 0.0464156756	 0.0833460665	 0.0024531362	-0.013327
C	-0.0629524232	 1.3790496452	 0.0111922058	 0.461534
N	-1.1991778796	 1.9439228927	 0.0297134116	-0.402892
C	-1.203769018	 3.3381394995	 0.037731473	 0.326662
O	-2.1900230293	 4.0233095791	 0.054553133	-0.295159
C	 0.1722838668	 3.9333808807	 0.0228485194	 0.26117
F	 0.2468060645	 5.2366306116	 0.0275882153	-0.003824
N	 1.2841999093	 3.3046529106	 0.0040625873	-0.113986
O	 1.1619468838	 1.9050791442	-0.0023196815	-0.220177
83.3783	190.3402	316.2782	362.8984	396.1664	436.374	485.7566	529.4144	648.4309	717.5921	745.7112	808.402	811.4522	999.6991	1022.7412	1241.399	1354.1733	1422.1898	1671.3725	1697.2189	1839.2549
FC1=NC(=O)C(F)=NO1	Fc1nc(=O)c(F)no1	
InChI=1S/C3F2N2O2/c4-1-2(8)6-3(5)9-7-1	InChI=1S/C3F2N2O2/c4-1-2(8)6-3(5)9-7-1
