10
gdb 23644	4.00584	1.99226	1.33053	5.2414	51.59	-0.2773	-0.0787	0.1986	791.7144	0.060537	-458.619586	-458.613697	-458.612752	-458.650026	21.428	
F	 0.0219718959	 0.0619029254	 0.0030576873	-0.043976
C	-0.0173250539	 1.3802734027	 0.0105926512	 0.3681
N	-1.1770619803	 1.9310704409	 0.0292430279	-0.37577
C	-1.2709394829	 3.3011734094	 0.0381810506	 0.459456
O	-2.2627738462	 3.9569224298	 0.0552406993	-0.31316
O	-0.026479881	 4.0371846343	 0.025742985	-0.20715
C	 1.1365734506	 3.4025883053	 0.0066919743	 0.13424
C	 1.2363570014	 2.0552122597	-0.002176811	-0.330958
H	 1.9832788003	 4.0811326755	-0.0007294188	 0.164964
H	 2.1804391861	 1.5331700969	-0.0175785456	 0.144252
105.4771	216.0095	388.4467	412.5632	509.711	557.3927	582.0663	692.3349	736.0601	787.3997	799.7448	821.7375	965.781	984.121	1100.1853	1162.2737	1290.3451	1324.3936	1478.2438	1587.7278	1704.4147	1904.5706	3201.3461	3260.1607
FC1=NC(=O)OC=C1	Fc1nc(=O)occ1	
InChI=1S/C4H2FNO2/c5-3-1-2-8-4(7)6-3/h1-2H	InChI=1S/C4H2FNO2/c5-3-1-2-8-4(7)6-3/h1-2H
