10
gdb 21847	8.41645	1.26662	1.11244	3.4536	49.88	-0.3036	-0.0519	0.2516	942.7491	0.060571	-450.604448	-450.598174	-450.59723	-450.635741	21.086	
O	 0.0094805038	-0.0103800886	 0.081273817	-0.229486
C	-0.013434845	 1.1633073548	-0.0763852872	 0.173
O	 1.1081291209	 1.9326975058	 0.1957247069	-0.211138
C	 0.9885501224	 3.2697440288	 0.1527298626	 0.473912
N	-0.1241744203	 3.9127872975	 0.4065956475	-0.207437
O	 0.2605003473	 5.2495927124	 0.244913189	-0.147804
C	 1.5568951341	 5.2308124047	-0.0657897778	 0.128746
N	 2.0755754229	 4.0465729975	-0.1434673639	-0.3065
H	-0.8517853782	 1.7692280037	-0.4485668957	 0.143423
H	 2.0409200721	 6.1836100734	-0.2218891984	 0.183284
77.7235	122.4945	189.5031	365.1537	455.7013	523.7873	623.7985	772.9834	843.5602	912.883	945.0401	980.872	1033.4593	1051.4161	1072.9447	1150.1379	1308.2628	1386.3428	1410.1441	1532.4567	1604.879	1896.9804	3054.6458	3272.3328
O=COC1=NOC=N1	O=COc1nocn1	
InChI=1S/C3H2N2O3/c6-2-7-3-4-1-8-5-3/h1-2H	InChI=1S/C3H2N2O3/c6-2-7-3-4-1-8-5-3/h1-2H
