11
gdb 21425	3.41574	2.46885	1.43305	2.8232	57.99	-0.2573	-0.0559	0.2013	766.5885	0.073994	-426.86978	-426.86346	-426.862516	-426.900551	23.108	
N	-0.0524826883	 1.2877514127	 0.3285063205	-0.482409
C	-0.0188820373	 0.0579348112	 0.018071486	 0.308873
N	 1.1140286332	-0.6974894607	-0.2956471021	-0.312182
N	 1.1981975212	-2.0150145795	-0.633389267	-0.06067
N	 0.1494874362	-2.6946355711	-0.6868888	-0.071662
N	-1.0390587609	-2.0740034292	-0.400779132	-0.287555
C	-1.2821756934	-0.7547852556	-0.0448869114	 0.437168
O	-2.3914719944	-0.3452460894	 0.1798631384	-0.313395
H	 0.8773921764	 1.7124796855	 0.3315980986	 0.221055
H	 2.0198795006	-0.2501730948	-0.2842418769	 0.274823
H	-1.8394441233	-2.6884241591	-0.4654770442	 0.285954
99.0765	145.9692	342.9273	431.7062	473.755	547.1922	561.6393	577.575	637.0548	694.0522	725.6815	790.3168	870.4889	977.3509	1048.2834	1098.2992	1122.7145	1227.6618	1365.1695	1424.328	1464.9133	1611.1756	1731.8014	1837.2963	3456.9352	3606.7628	3609.6786
N=C1NN=NNC1=O	[NH][C]1NN=NNC1=O	
InChI=1S/C2H3N5O/c3-1-2(8)5-7-6-4-1/h(H2,3,4,7)(H,5,6,8)	InChI=1S/C2H3N5O/c3-1-2(8)5-7-6-4-1/h(H2,3,4,7)(H,5,6,8)
