10
gdb 21859	2.30046	1.26532	0.83833	2.2593	49.63	-0.2662	-0.0582	0.208	1213.9899	0.054717	-450.681937	-450.672081	-450.671137	-450.722618	28.379	
O	-0.169327696	 1.5229174319	 0.1591607199	-0.384326
C	-0.2010979517	 0.1996062459	-0.1317650449	 0.470705
C	-1.5556946424	-0.3270482054	 0.0165962892	-0.548379
C	-1.7895315168	-1.606592544	-0.2297627537	 0.554388
O	-2.01302481	-2.7175968873	-0.4418704642	-0.18213
N	 1.3243794462	-3.3657189548	 0.4513324407	-0.001271
N	 2.4043376178	-3.4362910519	 0.2627901794	-0.003134
O	 0.7784234563	-0.42608025	-0.4668546875	-0.379393
H	 0.7522088866	 1.7950001219	 0.0381403355	 0.305045
H	-2.3838819901	 0.2979882338	 0.3210434056	 0.168495
10.0704	18.3551	36.3854	46.8252	80.1934	111.994	140.3052	411.5474	515.7011	524.3668	585.978	613.542	690.6347	774.8356	946.9231	1111.2051	1150.4497	1322.7243	1454.7475	1796.0035	2252.9273	2432.7546	3226.8356	3762.689	10.0698	18.3512	36.3842	46.8247	80.1925	111.9939	140.3046	411.5474	515.7009	524.3669	585.9778	613.5419	690.6346	774.8353	946.9232	1111.2051	1150.4498	1322.7239	1454.7474	1796.0031	2252.9268	2432.7545	3226.8356	3762.6895
OC1=CC(=O)N=NO1	OC(=O)[CH][C][O].N#N	
InChI=1S/C3H2N2O3/c6-2-1-3(7)8-5-4-2/h1,7H	InChI=1S/C3H2O3.N2/c4-2-1-3(5)6;1-2/h1H,(H,5,6);
