11
gdb 25221	2.54015	1.9308	1.34029	3.8359	59.23	-0.2791	-0.0971	0.182	889.6952	0.065992	-488.721382	-488.714385	-488.71344	-488.753301	24.684	
O	 0.2150161653	-0.1694132026	-0.297783906	-0.255371
C	 0.1039309916	 1.0055806826	-0.2448359372	 0.372788
O	-1.1716978285	 1.5857896615	-0.4508558887	-0.206405
C	-1.4062258164	 2.9016887335	-0.6424337373	 0.159298
N	-0.6697576914	 3.7874717146	-1.1800655653	-0.245019
C	 0.6321506758	 3.5444960561	-1.5790594692	 0.076627
N	 1.5206333088	 2.8403647407	-0.9853122412	-0.224645
C	 1.1925981259	 2.0443940505	 0.0995354457	 0.274258
O	 1.7153090649	 2.0489179413	 1.1798122205	-0.277231
H	-2.4114115374	 3.1543070182	-0.3150124836	 0.168634
H	 0.9261664114	 4.0953002036	-2.4709572179	 0.157066
91.6965	121.6271	250.7379	288.4646	309.8775	389.7155	491.5024	600.3996	629.646	709.9929	764.5633	835.1444	851.4042	945.2321	973.0987	1020.9549	1054.336	1168.7632	1193.7441	1416.6379	1427.2776	1644.4169	1698.5949	1828.5519	1916.8203	3157.9696	3185.9719
O=C1OC=NC=NC1=O	O=c1ocncnc1=O	
InChI=1S/C4H2N2O3/c7-3-4(8)9-2-5-1-6-3/h1-2H	InChI=1S/C4H2N2O3/c7-3-4(8)9-2-5-1-6-3/h1-2H
