11
gdb 131290	2.80522	1.47985	0.96878	3.9519	55.65	-0.2655	-0.0452	0.2203	1074.1431	0.06548	-525.871829	-525.864525	-525.86358	-525.904006	25.894	
O	 0.0200364904	 1.2782925248	 0.0074550795	-0.380186
C	-0.0416008564	-0.0393004658	 0.0007047495	 0.524517
N	-1.1148076582	-0.7362681796	 0.0024112289	-0.295266
N	-0.6173700477	-2.0448662193	-0.0069993993	-0.1592
C	-1.4384335619	-3.1795941765	-0.0087820988	 0.182079
O	-2.6346730566	-3.1431399199	-0.0023419335	-0.260076
C	 0.7694456246	-2.0820068765	-0.0144385294	 0.52365
O	 1.5376055063	-2.9917560288	-0.0228756701	-0.358548
O	 1.1325919655	-0.7276908434	-0.0088362523	-0.248576
H	 0.9461039194	 1.5528170745	 0.0044344246	 0.334347
H	-0.8170633253	-4.0894544995	-0.0166565291	 0.137257
109.2376	189.2345	200.4507	231.8844	309.4243	350.9086	414.6978	452.2631	639.3976	677.5518	704.6882	742.9666	762.4436	885.5597	956.8159	1028.537	1060.4151	1206.2347	1235.9073	1347.4859	1426.4916	1438.2383	1770.4703	1841.9612	1925.6766	3024.0246	3809.5241
OC1=NN(C=O)C(=O)O1	Oc1nn(C=O)c(=O)o1	
InChI=1S/C3H2N2O4/c6-1-5-3(8)9-2(7)4-5/h1H,(H,4,7)	InChI=1S/C3H2N2O4/c6-1-5-3(8)9-2(7)4-5/h1H,(H,4,7)
