10
gdb 23849	5.73175	1.60945	1.2566	4.4018	52.05	-0.279	-0.1008	0.1782	828.8818	0.059651	-458.559961	-458.554006	-458.553062	-458.590317	21.887	
F	 0.0587989315	 0.0316570574	 0.0028699583	-0.049355
C	-0.0061169625	 1.3530302459	 0.0104115123	 0.356026
N	-1.1825457148	 1.858175834	 0.0285560308	-0.112285
O	-1.2532723557	 3.2394151766	 0.0364408415	-0.25841
C	-0.1410491916	 4.0826347381	 0.025690123	 0.461027
O	-0.3362518118	 5.2656122269	 0.0349864609	-0.319715
C	 1.1594541284	 3.4173710913	 0.0054995827	-0.206548
C	 1.2336271973	 2.0767211072	-0.0022633243	-0.184012
H	 2.0282525312	 4.0634765444	-0.002537858	 0.15885
H	 2.167002908	 1.5258525782	-0.0172759472	 0.154421
104.7028	298.3528	374.4272	375.917	467.1599	497.6741	553.2596	617.2876	751.3632	782.639	796.5186	862.621	925.6018	1015.0253	1081.5363	1108.4661	1219.1859	1312.9406	1455.4075	1613.1943	1690.1737	1849.1298	3203.6495	3227.3881
FC1=NOC(=O)C=C1	Fc1noc(=O)cc1	
InChI=1S/C4H2FNO2/c5-3-1-2-4(7)8-6-3/h1-2H	InChI=1S/C4H2FNO2/c5-3-1-2-4(7)8-6-3/h1-2H
