11
gdb 129157	3.79611	0.77731	0.6452	0.7331	60.53	-0.2879	-0.1246	0.1633	1540.5408	0.061219	-481.027413	-481.017781	-481.016837	-481.067154	29.184	
N	 0.5156116771	 1.2022681682	 1.509751715	-0.436258
C	 0.5502564985	 0.3699336937	 0.5654051317	 0.315049
N	 1.722378405	-0.0515008993	-0.161909967	-0.144186
N	 1.4269564275	-0.8737344634	-1.0239027702	 0.064731
O	-0.0077280107	-1.1531841196	-1.0291061686	-0.255066
N	-2.7094464888	-3.4100831162	-3.0021487893	 0.013431
N	-2.7687303231	-2.6901655902	-2.1748307247	-0.004197
C	-0.574866797	-0.3888008159	-0.0458113376	 0.409528
N	-1.7949927582	-0.3446976963	 0.2673131516	-0.488578
H	 1.4541989824	 1.5584224467	 1.7080750849	 0.261652
H	-2.3494681926	-0.9717826477	-0.3192368159	 0.263894
12.953	18.2961	52.1245	56.0284	76.4554	150.0337	314.0951	331.7338	473.3967	535.0394	617.7641	675.5343	782.2517	805.9079	892.1709	922.8953	948.4263	1015.516	1084.8199	1247.0395	1313.9351	1611.0096	1761.8477	1786.65	2436.6439	3464.9031	3484.467
N=C1N=NON=NC1=N	[NH]c1nnoc1[NH].N#N	
InChI=1S/C2H2N6O/c3-1-2(4)6-8-9-7-5-1/h3-4H	InChI=1S/C2H2N4O.N2/c3-1-2(4)7-6-5-1;1-2/h3-4H;
