11
gdb 23692	3.80836	1.96701	1.29708	2.7364	56.98	-0.2381	-0.0643	0.1737	818.8727	0.073353	-438.73507	-438.729135	-438.728191	-438.765278	22.342	
F	 0.075399704	 0.0297583869	 0.0030800933	-0.044819
C	-0.0558897245	 1.3441713768	 0.0110834781	 0.368386
C	-1.2499422636	 1.9887793491	 0.0301110406	-0.192948
N	-1.2779442279	 3.3560282034	 0.0370554785	-0.204288
C	-0.1709694983	 4.0333331677	 0.0254850835	-0.098486
C	 1.1715488286	 3.4461569307	 0.004520793	 0.387232
O	 2.2357758118	 4.0281497078	-0.0066535694	-0.370628
N	 1.1085489882	 2.0330148395	-0.0012444955	-0.401323
H	-2.1842816275	 1.4450962792	 0.0400234612	 0.136462
H	-0.2170639138	 5.1188361871	 0.0313971915	 0.139775
H	 1.9889086931	 1.5332812419	-0.0153770948	 0.280636
168.691	224.9628	341.374	459.9646	502.9071	524.8943	552.9357	634.9515	695.3463	723.2956	761.8729	833.9927	927.8086	942.5591	1053.6026	1128.0254	1208.59	1259.9749	1326.9302	1392.2472	1497.0441	1573.3849	1665.4528	1799.6363	3175.7152	3227.3852	3594.6972
FC1=CN=CC(=O)N1	Fc1cncc(=O)[nH]1	
InChI=1S/C4H3FN2O/c5-3-1-6-2-4(8)7-3/h1-2H,(H,7,8)	InChI=1S/C4H3FN2O/c5-3-1-6-2-4(8)7-3/h1-2H,(H,7,8)
