11
gdb 129260	5.81352	1.08851	0.91684	0.6114	69.94	-0.2869	-0.1342	0.1527	1136.3218	0.065891	-447.694242	-447.68712	-447.686176	-447.727117	25.353	
N	-0.022816698	 1.2838238857	 0.0097529327	-0.482119
C	-0.0538123489	 0.0274690222	 0.0025650192	 0.469827
O	 1.1745501978	-0.6956696581	-0.0082147312	-0.253604
N	 1.2359471637	-2.052014022	-0.0161383094	-0.08416
C	 0.102029594	-2.6783267896	-0.0129195426	 0.199692
C	-1.1742587196	-1.9677317974	-0.001109964	-0.020293
N	-1.2425359384	-0.6910527793	 0.0063009095	-0.225593
C	 0.1392173734	-4.1074481565	-0.0212569786	 0.272285
N	 0.0954810828	-5.2631810257	-0.0275381875	-0.294571
H	 0.9356586364	 1.6325641704	 0.0059810346	 0.250139
H	-2.0969380834	-2.5454481497	 0.0013779273	 0.168396
24.4262	153.2241	195.0016	334.773	430.6054	457.5855	473.415	545.6945	582.5485	636.955	717.421	776.9643	777.343	876.7746	919.8513	982.2745	1010.6608	1075.5539	1236.1414	1259.8659	1420.9342	1561.6334	1693.3811	1760.5295	2355.1432	3155.3843	3508.7905
N=C1ON=C(C=N1)C#N	[NH]C1=N[CH]C(=NO1)C#N	
InChI=1S/C4H2N4O/c5-1-3-2-7-4(6)9-8-3/h2,6H	InChI=1S/C4H2N4O/c5-1-3-2-7-4(6)9-8-3/h2,6H
