11
gdb 129156	2.35325	1.83213	1.18838	1.8301	71.19	-0.2519	-0.1162	0.1356	959.2761	0.061936	-484.744516	-484.73662	-484.735676	-484.777506	27.659	
N	 0.084378442	 1.2159273242	-0.2467552259	-0.403433
C	-0.0464726429	 0.0079524526	 0.0508908792	 0.285905
N	 1.0845692999	-0.7893058629	 0.5422384065	-0.026293
N	 1.5053117824	-1.8030432728	 0.1326340013	 0.002488
O	 0.6227362668	-2.585206112	-1.2749217803	-0.286935
N	-0.6472992934	-2.6281621028	-1.4156469716	 0.052016
C	-1.5429522951	-1.8879701811	-0.8464625192	-0.085467
C	-1.4051980465	-0.7109454791	 0.0249139826	 0.312495
O	-2.3189258577	-0.2301463317	 0.6478984186	-0.273452
H	 1.0340845182	 1.5653865235	-0.1052434035	 0.266933
H	-2.5687494138	-2.1455089678	-1.0894682177	 0.155743
63.0382	102.7731	224.8703	238.1457	270.026	343.8185	376.6816	445.56	479.3576	571.0504	628.4093	726.3172	776.3073	813.3198	855.6065	880.4418	934.4819	1070.5199	1154.8225	1239.4925	1368.4998	1559.5148	1737.5895	1774.6107	1879.4347	3193.8564	3478.0659
N=C1N=NON=CC1=O	N=C(N=[N])C(=O)C=N[O]	
InChI=1S/C3H2N4O2/c4-3-2(8)1-5-9-7-6-3/h1,4H	InChI=1S/C3H2N4O2/c4-3(7-5)2(8)1-6-9/h1,4H
