11
gdb 130583	2.04422	0.91435	0.64663	3.5743	66.46	-0.2676	-0.0683	0.1993	1564.8147	0.058235	-451.568553	-451.557471	-451.556527	-451.610939	32.713	
O	-0.0405669928	 0.0619834435	-0.4199589359	-0.172358
C	-0.8391210259	 0.8786518813	-0.2703608143	 0.542398
C	-1.7646716418	 1.8148929914	-0.0995889656	-0.524148
C	-1.3937523547	 3.230358153	-0.2024029012	 0.281811
O	-0.2653353834	 3.6265315081	-0.4368488944	-0.33254
N	 3.065900466	 3.1962414056	 0.5343559497	-0.002051
N	 2.362483951	 2.3646264372	 0.677557844	-0.002485
C	-2.500804006	 4.1511805061	-0.0009136883	 0.229271
C	-3.4122422937	 4.9189396262	 0.1647173498	-0.403184
H	-2.77704141	 1.4965011336	 0.1100393387	 0.1675
H	-4.2041015986	 5.613525274	 0.3081548174	 0.215786
8.3731	19.8979	36.4803	46.8995	79.5893	81.6206	114.3879	187.8382	266.0388	422.274	539.1243	563.2969	587.9872	628.7059	658.5938	692.4194	758.7836	923.0716	1099.6632	1119.8115	1406.0175	1712.8631	2215.6355	2243.0366	2432.5008	3222.2516	3494.9826	8.368	19.8951	36.479	46.8991	79.5894	81.62	114.3884	187.8379	266.0363	422.2738	539.1243	563.2965	587.9873	628.7055	658.5918	692.4168	758.7831	923.0718	1099.6625	1119.8112	1406.0172	1712.8616	2215.6354	2243.0372	2432.5008	3222.2516	3494.9825
O=C1C=C(ON=N1)C#C	[O][C][CH]C(=O)C#C.N#N	
InChI=1S/C5H2N2O2/c1-2-4-3-5(8)6-7-9-4/h1,3H	InChI=1S/C5H2O2.N2/c1-2-5(7)3-4-6;1-2/h1,3H;
