10
gdb 23812	3.43706	2.36139	1.39973	1.5011	54.96	-0.2721	-0.1023	0.1698	761.3418	0.059034	-454.686929	-454.680665	-454.679721	-454.71763	22.631	
F	 0.050531509	 0.070337595	 0.1877780853	-0.012843
C	-0.0020097444	 1.3723930126	 0.0546100403	 0.210513
C	-1.1656157488	 2.0272856576	-0.0721130804	-0.109643
N	-1.1837752449	 3.4132488439	-0.211924577	-0.086622
N	-0.1805905135	 4.1143524124	-0.2293879991	 0.051092
O	 1.1322192204	 3.4512598843	-0.093895228	-0.295503
C	 1.268299942	 2.0935001993	 0.0490797223	 0.350512
N	 2.3822135487	 1.5050298299	 0.1663990664	-0.51312
H	-2.1286407266	 1.5365523966	-0.0735560449	 0.162682
H	 3.153115958	 2.1737971884	 0.1398960749	 0.242932
99.15	211.8947	293.8656	388.2389	410.0327	525.3115	569.1905	620.7157	621.6066	763.5694	802.5057	875.5175	907.4612	918.8574	1040.901	1111.8867	1239.5249	1311.5501	1427.5224	1617.812	1686.0186	1738.7104	3239.833	3491.0915
FC1=CN=NOC1=N	FC1=C(O[N]N=C1)[NH]	
InChI=1S/C3H2FN3O/c4-2-1-6-7-8-3(2)5/h1,5H	InChI=1S/C3H2FN3O/c4-2-1-6-7-8-3(2)5/h1,5H
