10
gdb 21356	5.56776	2.3055	1.63039	4.7699	55.46	-0.2536	-0.0695	0.1841	678.1247	0.062881	-409.593405	-409.588115	-409.587171	-409.622637	20.114	
N	 0.0354600383	 1.3274962972	 0.009142629	-0.16366
C	 1.2994504548	 1.8728004579	-0.0001068978	-0.20249
C	 2.1309072997	 0.7720678135	-0.0141151226	 0.327661
O	 3.3872124093	 0.3705303386	-0.0283498835	-0.293102
N	 3.2315434818	-1.194170715	-0.0358322176	-0.006288
N	 2.0329458678	-1.468678827	-0.0248969122	-0.155291
C	 1.2583731099	-0.3299630609	-0.0115542453	 0.342119
N	-0.0331554175	-0.0114173744	 0.0026292021	-0.301972
H	-0.8301264529	 1.8434691694	 0.0203568032	 0.292805
H	 1.4606863689	 2.9364918209	 0.0041148249	 0.160219
263.8397	299.6015	363.0139	532.9259	556.2102	625.8611	664.3183	720.2131	729.94	755.0687	779.4006	942.484	987.7407	1055.7689	1199.0222	1242.6824	1328.3211	1418.945	1475.211	1500.5618	1574.4092	1639.5711	3289.8319	3656.6682
N1C=C2ON=NC2=N1	[nH]1cc2onnc2n1	
InChI=1S/C3H2N4O/c1-2-3(5-4-1)6-7-8-2/h1H,(H,4,5)	InChI=1S/C3H2N4O/c1-2-3(5-4-1)6-7-8-2/h1H,(H,4,5)
