11
gdb 5346	6.46088	1.63923	1.3075	0.6692	66.65	-0.2764	-0.0779	0.1986	844.2441	0.073895	-356.45202	-356.445871	-356.444927	-356.482395	22.307	
C	 0.0178019808	-1.1763169818	-0.0042180049	-0.325404
C	 0.0013192533	 0.0255267251	 0.002931929	 0.273832
C	-0.0179156112	 1.455774631	 0.0114794131	 0.179962
N	-1.2165374295	 2.0596694558	 0.0305224833	-0.269631
C	-1.1613891331	 3.3887026297	 0.0366784547	 0.079539
N	-0.053961248	 4.1332221671	 0.0256337982	-0.235755
C	 1.0731025352	 3.4189450253	 0.0065981816	 0.07954
N	 1.1640059534	 2.0918879732	-0.0014874523	-0.26963
H	 0.0331736203	-2.2388722798	-0.0105193489	 0.210391
H	-2.1119031021	 3.9174653246	 0.0522502099	 0.138579
H	 2.0090369409	 3.9732385497	-0.0031355139	 0.138578
124.7222	162.7642	319.5902	354.7459	515.0237	546.9529	586.6065	654.8989	680.4309	709.6729	824.5801	855.0482	987.4887	1002.4653	1048.4167	1180.9164	1181.3973	1272.9237	1321.5198	1422.9208	1451.3039	1558.071	1598.5212	2242.6615	3164.8139	3168.526	3499.3377
C#CC1=NC=NC=N1	C#Cc1ncncn1	
InChI=1S/C5H3N3/c1-2-5-7-3-6-4-8-5/h1,3-4H	InChI=1S/C5H3N3/c1-2-5-7-3-6-4-8-5/h1,3-4H
