11
gdb 21694	3.77858	1.97487	1.29828	4.6477	61.41	-0.2503	-0.056	0.1943	843.2663	0.07189	-393.506275	-393.499481	-393.498537	-393.537141	25.293	
N	-0.0077757528	 1.3624389374	 0.1499191287	-0.604762
C	 0.0148724435	-0.0016028267	 0.0386844382	 0.249197
N	-1.0471591143	-0.7645895851	 0.0166272323	-0.155188
O	-0.5584827029	-2.0602558518	-0.030738194	-0.155708
N	 0.7908210678	-2.0915135209	-0.048698551	-0.16196
C	 1.184911895	-0.8394829307	-0.0062066394	 0.209159
C	 2.5311859697	-0.4176177536	-0.0134619982	 0.257636
C	 3.65514845	 0.0117353641	-0.0241313683	-0.391083
H	 0.8048784139	 1.8367500511	-0.2137841935	 0.268575
H	-0.8835833655	 1.8009054519	-0.0926059402	 0.27286
H	 4.6565511056	 0.3671431043	-0.0269585845	 0.211275
132.1842	169.9228	299.8031	332.006	369.6134	496.2236	546.1674	553.1277	597.0551	613.3204	622.4408	692.0418	756.2734	786.8527	906.2111	955.7129	1055.6626	1146.5929	1271.0491	1433.68	1536.7351	1616.2833	1662.8948	2242.2168	3497.7412	3578.5186	3685.6632
NC1=NON=C1C#C	Nc1nonc1C#C	
InChI=1S/C4H3N3O/c1-2-3-4(5)7-8-6-3/h1H,(H2,5,7)	InChI=1S/C4H3N3O/c1-2-3-4(5)7-8-6-3/h1H,(H2,5,7)
