9
gdb 23858	3.38276	2.47808	1.4303	1.2014	51.51	-0.2919	-0.1098	0.1821	736.5686	0.046706	-470.693355	-470.687257	-470.686313	-470.724071	21.858	
F	-0.0131706047	 0.0785153439	 0.144672271	-0.008863
C	-0.0001845976	 1.3843843765	 0.0358443267	 0.3547
N	-1.1321544136	 1.967067037	-0.0499386615	-0.109135
O	-1.114829465	 3.3393597645	-0.164147294	-0.230098
N	 0.1115976507	 4.0767933413	-0.1857090246	 0.087783
N	 1.1824164213	 3.4842223115	-0.1010950383	-0.158813
C	 1.2839169259	 2.0612979035	 0.0212756009	 0.274461
N	 2.3970876045	 1.4627586164	 0.1077740733	-0.463534
H	 3.1594695884	 2.1455545954	 0.0756143765	 0.2535
70.5741	308.688	314.3288	379.7319	481.1429	531.7613	545.3498	571.9268	594.5084	747.806	788.4028	944.0594	951.9189	985.4882	1073.0572	1275.7845	1441.9017	1631.78	1669.0574	1741.7314	3452.499
FC1=NON=NC1=N	FC1=NO[N]N=C1[NH]	
InChI=1S/C2HFN4O/c3-1-2(4)5-7-8-6-1/h4H	InChI=1S/C2HFN4O/c3-1-2(4)5-7-8-6-1/h4H
