11
gdb 25399	4.02323	1.24418	0.9503	1.2802	60.73	-0.2953	-0.1341	0.1612	1094.7414	0.065295	-488.730393	-488.723181	-488.722237	-488.763032	24.792	
O	-0.1310962543	 0.0308788897	-0.0030732264	-0.195339
C	-0.0055423637	 1.2215338601	 0.0058803386	 0.111428
C	 1.3512742341	 1.9017237418	-0.0029461323	 0.340013
N	 2.4549216227	 1.2369918966	-0.0204930448	-0.285163
C	 3.5783989009	 2.0320472009	-0.0261352838	 0.089411
N	 3.6324020651	 3.326781608	-0.0158595702	-0.290041
C	 2.4509976389	 4.034330194	 0.0028115522	 0.463605
O	 2.2962615797	 5.2096248622	 0.0142381341	-0.296413
O	 1.2455472264	 3.2236083191	 0.0090821474	-0.224775
H	-0.8521332353	 1.9349536913	 0.0212633156	 0.128407
H	 4.5239409355	 1.4939338565	-0.0405494903	 0.158866
68.2011	115.2207	176.7822	194.4421	388.7715	398.3131	523.2615	558.9547	641.0278	706.6979	730.5706	808.2132	841.492	935.2365	1023.5249	1028.5996	1040.3478	1236.6494	1291.0561	1409.6257	1423.6053	1556.9876	1671.8818	1842.6434	1919.1098	2960.5083	3169.6408
O=CC1=NC=NC(=O)O1	O=Cc1ncnc(=O)o1	
InChI=1S/C4H2N2O3/c7-1-3-5-2-6-4(8)9-3/h1-2H	InChI=1S/C4H2N2O3/c7-1-3-5-2-6-4(8)9-3/h1-2H
