11
gdb 5662	5.53021	2.3263	1.63749	2.0358	57.36	-0.2207	-0.0192	0.2014	692.8929	0.075394	-397.4201	-397.41503	-397.414085	-397.44921	19.71	
O	-0.0554347637	 1.3738890525	 0.0100138806	-0.200178
C	 1.280879187	 1.7060219056	-0.0010224726	 0.043162
N	 2.1237249155	 0.7128037153	-0.0145746692	-0.347042
C	 1.2788196936	-0.3596771991	-0.0122021551	 0.331031
C	-0.0275560986	 0.0114870992	 0.0023987988	 0.274271
C	-0.8193758543	-1.1697083453	 0.0036496981	-0.356392
C	 0.1177470025	-2.1702027626	-0.0108325286	 0.005186
O	 1.4145714004	-1.7004834845	-0.0207503773	-0.189544
H	 1.5028145491	 2.7606398132	 0.0025548321	 0.157856
H	-1.8885715863	-1.3000151204	 0.0132546464	 0.134348
H	 0.0241083549	-3.2430474941	-0.0157558331	 0.147302
209.2377	362.1213	484.262	591.5021	635.4914	697.636	713.6941	753.9803	767.5377	796.0438	816.0772	902.9723	955.4852	1029.357	1066.5571	1136.8095	1174.1637	1262.8059	1319.4227	1427.0019	1480.2477	1513.5302	1530.3591	1611.96	3271.7916	3289.6436	3294.296
O1C=NC2=C1C=CO2	o1cnc2c1cco2	
InChI=1S/C5H3NO2/c1-2-7-5-4(1)8-3-6-5/h1-3H	InChI=1S/C5H3NO2/c1-2-7-5-4(1)8-3-6-5/h1-3H
