11
gdb 24898	3.52929	1.32225	0.96188	2.8763	69.96	-0.2815	-0.1221	0.1594	1085.0242	0.066556	-451.589679	-451.582764	-451.58182	-451.621501	24.855	
O	-0.0225564617	 0.0049166462	 0.3415574225	-0.302921
C	 0.0250655189	 1.1491353647	 0.0026581475	 0.391718
O	-1.1557419733	 1.7955363677	-0.3827404695	-0.239988
C	-1.1245532393	 3.0902902389	-0.7699014106	 0.267482
C	 0.0263484201	 3.8025914134	-0.8008508204	-0.11282
N	 1.2280848232	 3.2387781128	-0.4371137479	-0.201477
C	 1.2217250764	 2.003869634	-0.0640928031	-0.085107
C	-2.3944658969	 3.6268762184	-1.1363417956	 0.261314
N	-3.4133755277	 4.0843526381	-1.4385171306	-0.301067
H	 0.030721406	 4.8380841999	-1.1137926181	 0.158974
H	 2.1535981643	 1.5277963757	 0.2297248658	 0.163892
129.1398	136.6804	151.5512	366.9163	428.6438	463.0972	467.7267	545.7861	587.3732	678.0999	699.7358	746.3781	871.5531	892.2812	952.8461	1018.1759	1092.9273	1157.8466	1238.9861	1361.5147	1393.3485	1556.9471	1655.3928	1864.4733	2350.1309	3177.3211	3229.7476
O=C1OC(=CN=C1)C#N	O=c1oc(cnc1)C#N	
InChI=1S/C5H2N2O2/c6-1-4-2-7-3-5(8)9-4/h2-3H	InChI=1S/C5H2N2O2/c6-1-4-2-7-3-5(8)9-4/h2-3H
