11
gdb 21877	3.75886	2.08117	1.33952	3.9764	54.35	-0.2698	-0.0538	0.216	811.4162	0.073746	-430.756066	-430.749724	-430.74878	-430.786794	22.591	
O	 0.1213932882	 1.3114661885	 0.1492052942	-0.408736
C	 0.0797697494	-0.0092756131	-0.0071922654	 0.497901
N	 0.0774071662	-0.6808985282	-1.12347138	-0.373766
C	 0.0253625208	-1.9824569679	-0.6702010218	 0.061913
N	-0.0036429478	-2.1447690008	 0.6280023215	-0.218668
N	 0.0319735445	-0.8410301227	 1.0817567097	-0.098012
C	 0.0193890121	-0.4813894878	 2.4413288951	 0.184035
O	-0.023330609	-1.263644373	 3.343724678	-0.249054
H	 0.1506425642	 1.7032345072	-0.7343673515	 0.330584
H	 0.0091938602	-2.8255476145	-1.3449991195	 0.146287
H	 0.0543178712	 0.6151322522	 2.5502917097	 0.127515
129.0354	208.5125	224.5714	339.969	383.1508	445.7064	582.2971	668.9405	698.2531	746.5165	844.949	926.2071	964.6846	1030.5294	1108.3575	1191.6512	1225.9943	1289.952	1335.3371	1432.9338	1472.2903	1571.4915	1634.8802	1852.004	3013.0744	3262.0804	3787.4913
OC1=NC=NN1C=O	Oc1ncnn1C=O	
InChI=1S/C3H3N3O2/c7-2-6-3(8)4-1-5-6/h1-2H,(H,4,5,8)	InChI=1S/C3H3N3O2/c7-2-6-3(8)4-1-5-6/h1-2H,(H,4,5,8)
