11
gdb 21430	3.88151	2.04232	1.3382	4.	55.82	-0.2528	-0.0438	0.209	814.2098	0.072975	-430.738041	-430.731698	-430.730754	-430.768866	22.584	
N	-0.0578883472	 1.3063764215	 0.0107098276	-0.576775
C	 0.0040312067	 0.051372079	 0.0033909136	 0.499133
O	 1.1336624467	-0.7572754809	-0.0078618445	-0.203523
C	 0.6669663036	-2.0384172431	-0.0121486902	 0.108009
N	-0.6024008497	-2.1668374953	-0.005238267	-0.187637
N	-1.060423038	-0.8552491857	 0.0047642176	-0.125406
C	-2.4189123773	-0.522743254	 0.0146489444	 0.179781
O	-3.3070407464	-1.3274441443	 0.015560021	-0.26746
H	 0.8629695615	 1.7354857606	 0.0075489978	 0.248309
H	 1.3921751676	-2.8360462565	-0.020909111	 0.183347
H	-2.5349434976	 0.5722645987	 0.0214771007	 0.142222
118.2073	196.1324	214.6967	292.1849	394.6638	576.1958	628.456	712.5202	715.8212	768.5167	840.9545	865.2659	934.0691	979.1078	1036.0511	1092.5685	1137.1762	1244.1544	1306.3096	1372.4878	1424.8981	1662.8768	1803.3134	1838.9646	3032.9919	3289.5852	3554.0539
N=C1OC=NN1C=O	[NH][C@H]1OC=NN1C=O	
InChI=1S/C3H3N3O2/c4-3-6(2-7)5-1-8-3/h1-2,4H	InChI=1S/C3H4N3O2/c4-3-6(2-7)5-1-8-3/h1-4H/t3-/m1/s1
