11
gdb 132470	3.233	1.36655	0.96054	4.2117	58.22	-0.2411	-0.0659	0.1753	1049.5894	0.064239	-541.800454	-541.793667	-541.792723	-541.832002	25.26	
F	 0.0914007437	 0.0694753076	 0.0021620676	-0.031295
C	-0.0746599995	 1.3700389725	 0.0113024618	 0.426264
C	-1.2766997584	 1.9777961191	 0.0311955426	-0.372876
C	-1.2653119928	 3.4056105977	 0.0383183792	-0.170989
C	-0.0945140924	 4.0823084951	 0.0255573812	 0.098306
F	-0.0476018087	 5.40960418	 0.0313613365	-0.051885
C	 1.1969706449	 3.4222700501	 0.0046837455	 0.367748
O	 2.2884092915	 3.9050637242	-0.0089612366	-0.31579
O	 1.0876596142	 2.0024219267	-0.0014928978	-0.235054
H	-2.1875984628	 1.3992450679	 0.0407919174	 0.140444
H	-2.1955882397	 3.9618189991	 0.0539175125	 0.145127
121.5818	178.9607	307.3716	351.8864	391.3551	421.9728	452.904	513.4224	613.9958	678.5391	747.6395	753.9912	777.3353	806.83	943.1942	972.1651	1028.9135	1097.3525	1266.5748	1293.431	1388.2063	1417.7394	1627.8137	1709.0841	1874.5459	3207.0231	3254.0439
FC1=CC=C(F)C(=O)O1	Fc1ccc(F)c(=O)o1	
InChI=1S/C5H2F2O2/c6-3-1-2-4(7)9-5(3)8/h1-2H	InChI=1S/C5H2F2O2/c6-3-1-2-4(7)9-5(3)8/h1-2H
