10
gdb 14582	48.41504	0.56091	0.55449	3.6667	100.86	-0.2595	-0.1043	0.1553	1801.5943	0.057802	-342.932283	-342.924293	-342.923348	-342.965013	26.649	
O	-0.1120139251	-0.0353752417	 0.0021363714	-0.215156
C	-0.0267390455	 1.1717059483	 0.0081993772	-0.041966
C	 1.2179680402	 1.8933731078	 0.0001650291	 0.148716
C	 2.2561785331	 2.5284831028	-0.0063259496	-0.348
C	 3.4054291227	 3.2302345112	-0.0134790278	 0.631507
C	 4.4469485412	 3.8642190877	-0.0198241191	 0.01465
C	 5.6003845185	 4.5675808271	-0.0267311499	 0.172236
C	 6.6331495842	 5.1972234016	-0.0327881904	-0.679163
H	-0.9249268718	 1.8207206477	 0.0206445979	 0.110521
H	 7.5408634227	 5.7494219974	-0.0381156588	 0.206655
61.0346	73.8226	153.2035	189.9688	276.5667	333.6628	446.6342	483.0485	515.7056	561.4848	604.6978	641.5706	698.91	708.9062	955.1444	1016.0577	1315.8256	1417.6737	1751.6152	2148.7522	2281.0207	2309.1172	2929.5836	3497.9375
O=CC#CC#CC#C	O=CC#CC#CC#C	
InChI=1S/C7H2O/c1-2-3-4-5-6-7-8/h1,7H	InChI=1S/C7H2O/c1-2-3-4-5-6-7-8/h1,7H
