9
gdb 23799	2.26314	1.26237	0.84761	3.0545	46.06	-0.2818	-0.0726	0.2092	1182.5458	0.041998	-474.700245	-474.690613	-474.689669	-474.740443	27.134	
F	-0.2244518877	-0.1543846581	-0.1462690308	-0.079717
C	-0.2532125392	 1.1425523532	 0.2168281755	 0.438695
C	-1.5868640148	 1.6818750595	 0.0139570757	-0.596132
C	-1.8304290736	 2.950992016	 0.315286896	 0.562714
O	-2.0604997206	 4.0483933504	 0.5743022828	-0.169918
N	 1.18415235	 4.5563817604	-0.5738163831	-0.00458
N	 2.2544422831	 4.7749159347	-0.4574742987	 0.002041
O	 0.7194425905	 1.6897678647	 0.6351104735	-0.328905
H	-2.3975450976	 1.0814345191	-0.3747829209	 0.175801
11.6271	23.581	38.283	46.1328	82.0881	116.2315	142.5926	410.3176	524.6745	554.1915	591.8954	699.1222	753.5204	962.8136	1114.7619	1154.9647	1423.6634	1864.131	2258.1494	2433.2193	3228.8894	11.6282	23.5821	38.2837	46.133	82.0885	116.2318	142.5929	410.3175	524.6746	554.1916	591.8956	699.1223	753.5208	962.8135	1114.7622	1154.9646	1423.6635	1864.1313	2258.1499	2433.2193	3228.8894
FC1=CC(=O)N=NO1	FC(=O)[CH][C][O].N#N	
InChI=1S/C3HFN2O2/c4-2-1-3(7)5-6-8-2/h1H	InChI=1S/C3HFO2.N2/c4-3(6)1-2-5;1-2/h1H;
