11
gdb 24803	3.89257	1.2346	0.93731	2.2242	66.62	-0.28	-0.1014	0.1786	1105.8208	0.066922	-451.591384	-451.584471	-451.583527	-451.623326	24.667	
O	 0.0651758727	-0.0589871303	 0.0016065712	-0.316114
C	 0.0053497074	 1.1460955201	 0.0090057268	 0.41343
C	-1.2632987152	 1.892745144	 0.0304888438	-0.31275
C	-1.2464043089	 3.2364002461	 0.037690251	 0.297113
O	-0.0818698563	 3.9464102718	 0.0256801498	-0.211136
C	 1.0662213432	 3.2127372318	 0.0058822869	 0.12703
N	 1.1793110354	 1.9506182084	-0.0026451826	-0.291547
C	-2.4093382718	 4.0661641517	 0.0582021697	 0.258314
N	-3.3627221769	 4.720181113	 0.0748738296	-0.297952
H	-2.198360599	 1.3487991564	 0.0402802076	 0.163438
H	 1.9236998194	 3.879495387	-0.0021847837	 0.170172
109.2315	128.9709	154.3631	382.1496	440.5206	449.4421	456.3442	537.5177	607.2442	684.4057	775.6662	776.0201	870.4986	916.2294	945.2057	977.6161	1071.0423	1169.6227	1230.4706	1354.2498	1413.7217	1633.3839	1696.1083	1806.4157	2359.8598	3194.0583	3235.1207
O=C1C=C(OC=N1)C#N	O=c1cc(ocn1)C#N	
InChI=1S/C5H2N2O2/c6-2-4-1-5(8)7-3-9-4/h1,3H	InChI=1S/C5H2N2O2/c6-2-4-1-5(8)7-3-9-4/h1,3H
