11
gdb 21869	4.12505	2.072	1.39273	4.2624	57.56	-0.2537	-0.0724	0.1814	791.5324	0.073923	-426.881535	-426.875284	-426.874339	-426.912251	23.135	
O	-0.0874813633	 1.3143290366	 0.0158243007	-0.397217
C	 0.0707201925	-0.0102660765	 0.0312691955	 0.527983
N	 1.2111004607	-0.5738587362	-0.1016618472	-0.364572
C	 1.2059882471	-1.9656707789	-0.0553206436	 0.399225
N	 2.2687013873	-2.63785042	 0.1158276915	-0.485595
N	-0.0576347363	-2.654058123	-0.2534929684	-0.195921
N	-1.1392313524	-2.0532348189	-0.1263061927	-0.034693
N	-1.0949136679	-0.7009608241	 0.1906063715	-0.297206
H	 0.7997475373	 1.6931287504	-0.0818817031	 0.322339
H	 2.0366150767	-3.6316058767	 0.076163172	 0.233848
H	-1.9916868115	-0.2419735027	 0.1456927938	 0.291808
80.7347	201.3245	362.7302	423.5994	505.8706	542.8518	563.2259	578.3716	587.3066	724.6754	748.1534	793.3335	902.507	950.0438	963.4235	1039.4172	1119.5917	1244.7161	1320.0824	1352.0464	1500.7389	1625.7014	1711.1666	1735.6662	3482.9445	3641.7851	3746.3398
OC1=NC(=N)N=NN1	OC1=N[C@H]([NH])N=NN1	
InChI=1S/C2H3N5O/c3-1-4-2(8)6-7-5-1/h(H3,3,4,5,6,8)	InChI=1S/C2H4N5O/c3-1-4-2(8)6-7-5-1/h1,3H,(H2,4,5,6,8)/t1-/m0/s1
