11
gdb 23955	2.05704	1.91788	0.99251	4.5951	74.28	-0.2606	-0.0756	0.185	1065.6637	0.066263	-414.416181	-414.408985	-414.408041	-414.448217	25.995	
C	 0.175945998	-1.1921681092	-0.0060880062	-0.379208
C	 0.0742861545	 0.0070362953	 0.0018141979	 0.260659
C	-0.0685825942	 1.3988197091	 0.0114015138	 0.156971
C	-1.1541850747	 2.2416819033	 0.0315501405	 0.065719
N	-0.7165897185	 3.5593568889	 0.0324011535	-0.291748
C	 0.5699671837	 3.4595179817	 0.0134040359	 0.070411
O	 1.0458297998	 2.1933942784	-0.0002584912	-0.170419
C	-2.5244144296	 1.8797672817	 0.0492479644	 0.231454
N	-3.6383660193	 1.5672497492	 0.063534278	-0.333744
H	 0.2600206359	-2.2516857395	-0.0129434097	 0.216156
H	 1.3017523346	 4.2518986209	 0.0071998231	 0.173749
105.6742	159.3656	190.2081	206.5993	432.697	468.8812	525.796	531.1628	604.9161	632.3523	662.0464	663.81	707.7934	775.5244	858.4884	955.5132	1077.9876	1137.0251	1217.4794	1300.5982	1359.0083	1548.4169	1589.2558	2239.1803	2357.0493	3283.3867	3495.8016
C#CC1=C(N=CO1)C#N	C#Cc1c(nco1)C#N	
InChI=1S/C6H2N2O/c1-2-6-5(3-7)8-4-9-6/h1,4H	InChI=1S/C6H2N2O/c1-2-6-5(3-7)8-4-9-6/h1,4H
