11
gdb 21713	8.62824	1.19416	1.05796	6.3169	59.02	-0.2513	-0.0575	0.1938	1009.0461	0.072218	-426.850628	-426.843696	-426.842752	-426.882227	23.917	
N	 0.0274367973	 1.3629967791	-0.0479944418	-0.484921
C	 0.0663248451	 0.0253951154	 0.0731553776	 0.145876
N	 1.1555465682	-0.6376326524	-0.1059431102	-0.33
C	 1.0837788989	-2.0006481166	-0.0820321267	 0.471588
N	 0.0559285381	-2.7623961064	-0.3778096438	-0.182634
O	 0.5141604825	-4.0303250104	-0.2234390657	-0.152476
N	 1.854696965	-3.9800903596	 0.1611531658	 0.046781
N	 2.1944602906	-2.7767055444	 0.2394454184	-0.215979
H	 0.8756943266	 1.8626491202	-0.2629388932	 0.280247
H	-0.797370173	 1.8830096148	 0.1895691393	 0.278897
H	-0.8897592793	-0.4407075698	 0.3305298804	 0.14262
90.0158	148.8165	162.5371	231.8354	386.4005	446.073	487.297	632.4951	661.2201	700.7335	775.9601	816.4899	952.2238	1032.1795	1056.1384	1074.8357	1133.0724	1282.2859	1335.8402	1390.7267	1521.5226	1570.1063	1632.787	1728.7684	3089.9824	3609.1046	3750.408
NC=NC1=NON=N1	NC=Nc1nonn1	
InChI=1S/C2H3N5O/c3-1-4-2-5-7-8-6-2/h1H,(H2,3,4,6)	InChI=1S/C2H3N5O/c3-1-4-2-5-7-8-6-2/h1H,(H2,3,4,6)
