11
gdb 130530	3.9942	1.79263	1.23731	3.4829	69.7	-0.2748	-0.1236	0.1512	876.4574	0.066381	-447.641799	-447.635758	-447.634814	-447.672128	23.125	
O	-0.1208305596	 1.1632153954	 0.0095167863	-0.214516
N	 1.0611842147	 2.1004601641	 0.0032243189	 0.027324
N	 2.1959232545	 1.6167213663	-0.0102479105	-0.174299
C	 2.3623214495	 0.2562529908	-0.0191491298	 0.34345
C	 3.4555883208	-0.5576628498	-0.0340417459	-0.267787
C	 2.8904304692	-1.893098597	-0.0357104419	-0.00245
N	 1.5694924252	-1.9408051642	-0.0233623455	-0.284282
C	 1.201827136	-0.6179662985	-0.0127362504	 0.403504
N	-0.0186081973	-0.1743237811	 0.0013495498	-0.115996
H	 4.5009669169	-0.2892189397	-0.0426560152	 0.144427
H	 3.4702181903	-2.8095092863	-0.046214486	 0.140625
194.1111	247.3528	318.7657	372.4016	455.7592	570.1178	574.0901	613.9544	633.7131	779.2634	798.2821	850.2774	888.9169	920.9234	966.9176	994.0029	1041.0108	1219.2974	1249.6207	1353.5934	1371.5684	1438.8489	1554.9781	1618.3526	1646.1012	3206.6889	3258.9156
O1N=NC2=CC=NC2=N1	O1[N]N=C2[CH]C=NC2=N1	
InChI=1S/C4H2N4O/c1-2-5-4-3(1)6-8-9-7-4/h1-2H	InChI=1S/C4H2N4O/c1-2-5-4-3(1)6-8-9-7-4/h1-2H
