11
gdb 130816	8.41318	0.66153	0.61331	3.7027	73.92	-0.2878	-0.1067	0.1811	1628.4855	0.064808	-451.472389	-451.464793	-451.463849	-451.506251	25.262	
O	-0.0980080663	-0.020950681	 0.0015093798	-0.211031
C	-0.0139869404	 1.1838565599	 0.0073724557	 0.010656
C	 1.2370904865	 1.9056724735	-0.0006756891	 0.147909
C	 2.2706280255	 2.5314955964	-0.0071802017	 0.033119
C	 3.4642649932	 3.2817428686	-0.014322042	 0.218147
N	 4.6634851729	 2.7332435103	-0.0317909215	-0.142689
O	 5.5373497677	 3.7648364706	-0.0332882081	-0.136359
N	 4.8998747975	 4.9801387159	-0.0167622423	-0.045598
C	 3.6297503468	 4.701904233	-0.0050529138	-0.153423
H	-0.9103591863	 1.8347064323	 0.0196902183	 0.112656
H	 2.880011483	 5.4768068505	 0.0092170646	 0.166614
43.8156	75.6249	108.887	204.1854	273.8909	414.6026	506.2217	516.1805	648.5092	703.6247	732.7454	871.3497	904.6733	952.2466	970.7558	1017.2621	1035.4972	1083.4168	1214.9981	1383.5813	1419.998	1468.3149	1581.2754	1768.2319	2331.4896	2935.6094	3280.554
O=CC#CC1=NON=C1	O=CC#Cc1nonc1	
InChI=1S/C5H2N2O2/c8-3-1-2-5-4-6-9-7-5/h3-4H	InChI=1S/C5H2N2O2/c8-3-1-2-5-4-6-9-7-5/h3-4H
