10
gdb 21394	5.82582	2.30367	1.65087	6.5394	53.85	-0.2664	-0.0481	0.2183	669.4452	0.063813	-405.764528	-405.759283	-405.758339	-405.793707	19.907	
N	-0.0127249667	 1.3471675636	 0.0099166601	-0.359885
N	 1.3185924204	 1.7720014546	-0.0008719655	-0.099388
N	 2.0919989955	 0.741256795	-0.0140330903	-0.251026
C	 1.3026781968	-0.3723938683	-0.0122501724	 0.365742
C	-0.0297061242	 0.0049340256	 0.0029220873	 0.47453
N	-0.7191038085	-1.1468726771	 0.0036072422	-0.359886
N	 0.191722813	-2.2066760272	-0.0111497827	-0.099388
N	 1.3907884576	-1.7345306635	-0.0204504386	-0.251026
H	-0.7438207334	 2.0374621512	 0.0209319055	 0.290163
H	-1.7036148006	-1.3513114639	 0.0120895343	 0.290163
250.5058	345.3613	385.6511	459.2376	494.8485	675.7862	696.1064	722.4761	782.6031	797.3336	867.0763	899.2217	1011.2859	1037.7251	1251.4834	1258.2166	1306.673	1363.0097	1412.2033	1458.7966	1511.1775	1656.5499	3682.8169	3684.5877
N1N=NC2=C1NN=N2	[nH]1nnc2c1[nH]nn2	
InChI=1S/C2H2N6/c3-1-2(5-7-3)6-8-4-1/h(H2,3,4,5,6,7,8)	InChI=1S/C2H2N6/c3-1-2(5-7-3)6-8-4-1/h(H2,3,4,5,6,7,8)
