11
gdb 129177	3.28852	1.37069	0.96904	2.4673	68.74	-0.2293	-0.0989	0.1304	1076.8855	0.065945	-484.873271	-484.865926	-484.864982	-484.905499	26.385	
N	-0.2228005195	 1.2401321042	-0.0608740341	-0.561564
C	-0.0047301816	 0.0031208432	-0.1112257189	 0.477424
N	-0.9902056508	-0.981721219	-0.1627244757	-0.418158
C	-0.3414223335	-2.2224381339	 0.0106299544	 0.248336
C	 1.0983821609	-2.0069960695	-0.0214703349	 0.397018
O	 2.0249695671	-2.7572446742	 0.0077142244	-0.333268
N	-1.3653026895	-4.4281365193	-0.0559703278	-0.206697
N	-0.9091428047	-3.3832615996	-0.0507009029	 0.097583
O	 1.2305739751	-0.6213229673	-0.1247955025	-0.230576
H	 0.6462899986	 1.7668626295	-0.026731602	 0.245558
H	-1.862569582	-0.7663663842	 0.29802102	 0.284343
97.4116	146.4044	172.8051	282.5958	363.5259	420.411	461.3264	474.3487	555.5752	647.5036	685.3677	708.5774	728.9407	798.9192	830.7593	956.8242	1029.3741	1082.4507	1296.7602	1320.9575	1349.3802	1489.6167	1800.4874	1900.7539	2185.3148	3544.1794	3615.7561
N=C1NC2=C(ON=N2)O1	[NH][C]1N[C](C(=O)O1)[N][N]	
InChI=1S/C3H2N4O2/c4-3-5-1-2(8-3)9-7-6-1/h(H2,4,5)	InChI=1S/C3H2N4O2/c4-3-6-1(7-5)2(8)9-3/h(H2,4,6,7)
