11
gdb 23686	3.73764	2.0143	1.3089	4.0865	57.01	-0.2407	-0.0616	0.1791	818.0648	0.072162	-442.563622	-442.557619	-442.556675	-442.593941	22.502	
F	 0.0833111578	 0.0658877297	 0.002130052	-0.033557
C	-0.0681535464	 1.3694273968	 0.0112746367	 0.432811
C	-1.2760955619	 1.9756700782	 0.0310337998	-0.38198
C	-1.2549214396	 3.3990019505	 0.0382759934	-0.022178
C	-0.0899258836	 4.099718214	 0.0261629542	-0.27324
C	 1.1889927625	 3.4388881791	 0.0058135303	 0.44278
O	 2.2948233073	 3.8886595968	-0.0078918605	-0.319529
O	 1.0882428848	 1.990422246	-0.0010089357	-0.240599
H	-2.1843952332	 1.392995401	 0.0402009939	 0.132094
H	-2.1996518742	 3.9327801935	 0.0537648797	 0.131484
H	-0.0608074934	 5.1809017942	 0.0311619064	 0.131914
152.5022	205.1284	348.9005	431.5979	480.3143	525.418	556.6998	688.6128	736.3784	741.609	790.8236	838.1187	845.585	1000.9597	1007.3269	1054.8531	1088.3208	1188.3406	1306.8277	1413.3845	1446.9558	1582.1734	1691.8761	1879.3373	3189.526	3231.4877	3252.6025
FC1=CC=CC(=O)O1	Fc1cccc(=O)o1	
InChI=1S/C5H3FO2/c6-4-2-1-3-5(7)8-4/h1-3H	InChI=1S/C5H3FO2/c6-4-2-1-3-5(7)8-4/h1-3H
