11
gdb 23773	3.35713	2.47972	1.42624	3.6347	57.71	-0.2394	-0.0685	0.1708	766.8055	0.072786	-438.701415	-438.695408	-438.694464	-438.731784	22.391	
F	 0.0551033478	 0.0956580766	 0.1764140156	-0.029734
C	-0.0193064282	 1.403909704	 0.0557792872	 0.295908
N	-1.1570605516	 1.9593464191	-0.032962334	-0.29111
C	-1.1673746123	 3.3451023719	-0.1580674777	-0.096294
C	-0.0320939831	 4.0542503626	-0.183235856	 0.046065
O	 1.188559999	 3.4609267549	-0.0881896695	-0.222585
C	 1.2866026481	 2.0878430588	 0.038766331	 0.285322
N	 2.3912031172	 1.4817105606	 0.1311235844	-0.508337
H	-2.1341385497	 3.8238514186	-0.234121657	 0.134698
H	 0.0433217644	 5.1288016331	-0.27742659	 0.149381
H	 3.1729883884	 2.1376280099	 0.098760826	 0.236686
104.9752	268.2059	328.0943	430.6101	515.2968	531.1695	558.4769	573.47	754.6608	777.3255	810.3058	876.0956	908.1854	918.9736	995.0539	1057.9203	1193.9155	1245.2919	1278.2713	1375.8599	1416.265	1639.0296	1696.0969	1743.2249	3221.3852	3244.197	3487.1608
FC1=NC=COC1=N	FC1=C(OC=C[N]1)[NH]	
InChI=1S/C4H3FN2O/c5-3-4(6)8-2-1-7-3/h1-2,6H	InChI=1S/C4H3FN2O/c5-3-4(6)8-2-1-7-3/h1-2,6H
