11
gdb 23677	3.83161	1.9858	1.30794	1.0391	55.9	-0.2513	-0.0519	0.1994	815.4447	0.073578	-438.743488	-438.737677	-438.736733	-438.773508	22.093	
O	 0.1048698733	 1.3221699517	 0.0771183188	-0.406781
C	 0.0681335913	-0.0188206224	 0.0417426303	 0.410328
N	 0.0839891934	-0.621338231	-1.1421899525	-0.384625
C	 0.0463146895	-1.9382008638	-1.1189021033	 0.304131
F	 0.0616239758	-2.5504930409	-2.2933958553	-0.059159
C	-0.0071321995	-2.6872053522	 0.050095535	-0.148611
N	-0.0224778188	-2.0674710565	 1.2331234626	-0.208383
C	 0.0145136461	-0.7418158477	 1.2433864563	-0.078195
H	 0.1388813884	 1.6299207484	-0.8392811081	 0.308326
H	-0.0368966687	-3.7704498139	 0.0249024658	 0.13138
H	 0.0025692191	-0.2264234317	 2.1976621604	 0.131589
205.4132	248.2269	340.3329	485.0884	495.5665	532.8871	556.9613	590.3038	692.5966	744.8264	774.5427	880.4243	928.1188	1018.9463	1047.6667	1173.1714	1207.2113	1292.0156	1301.3856	1383.2285	1482.5807	1513.4456	1601.4094	1639.4602	3190.8068	3198.5017	3771.9198
OC1=NC(F)=CN=C1	Oc1nc(F)cnc1	
InChI=1S/C4H3FN2O/c5-3-1-6-2-4(8)7-3/h1-2H,(H,7,8)	InChI=1S/C4H3FN2O/c5-3-1-6-2-4(8)7-3/h1-2H,(H,7,8)
