11
gdb 132242	2.08571	1.98127	1.01607	3.014	56.08	-0.2864	-0.0527	0.2337	1018.5369	0.066628	-530.034079	-530.027235	-530.02629	-530.066015	24.877	
F	 0.0860687221	 0.1000089624	 0.1077475946	-0.019268
C	-0.0788208406	 1.3842498472	-0.0243188167	 0.414075
N	-1.1913478279	 1.9304995137	 0.2083508107	-0.405872
C	-1.2658262527	 3.3242750627	 0.0376569821	 0.463659
O	-2.2623193171	 3.9661046179	 0.2249779399	-0.335599
N	-0.0744791428	 3.9340303785	-0.3750086933	-0.388189
C	 1.1242446271	 3.3133581972	-0.6208140118	 0.494198
N	 2.1660737442	 3.9069660205	-0.9898871955	-0.544476
O	 1.079794693	 1.9278940459	-0.4184737502	-0.221797
H	-0.0950266777	 4.935246564	-0.5066974403	 0.293742
H	 2.9451881224	 3.2666871	-1.1171306996	 0.249527
106.6458	127.1659	197.4775	361.6893	400.0977	503.4478	548.4563	621.2061	638.923	667.8766	701.3274	739.1857	782.1392	816.2107	920.2711	976.6449	1037.6943	1113.0128	1238.5602	1348.9079	1386.1373	1410.7925	1741.9142	1818.0988	1863.5481	3550.1639	3628.6522
FC1=NC(=O)NC(=N)O1	FC1=NC(=O)N[C]([NH])O1	
InChI=1S/C3H2FN3O2/c4-1-6-3(8)7-2(5)9-1/h(H2,5,7,8)	InChI=1S/C3H2FN3O2/c4-1-6-3(8)7-2(5)9-1/h(H2,5,7,8)
