10
gdb 23689	3.9535	2.00884	1.33202	4.5784	52.82	-0.2691	-0.0814	0.1876	792.1027	0.05994	-458.615665	-458.609576	-458.608632	-458.646267	21.896	
F	 0.0641858996	 0.0573260578	 0.0030800887	-0.023999
C	-0.0557926099	 1.3600374379	 0.0107423312	 0.44541
C	-1.2622330173	 1.9894779839	 0.0308394093	-0.376789
C	-1.1814657804	 3.3996034821	 0.0368143967	 0.058963
N	-0.0802280013	 4.1072205675	 0.0250315403	-0.326945
C	 1.1265873595	 3.4888484002	 0.0053215728	 0.472135
O	 2.2244960184	 3.931249403	-0.0080438417	-0.293921
O	 1.0824092732	 1.9737686891	-0.0016741662	-0.240726
H	-2.1920706709	 1.4434168459	 0.0411354505	 0.139767
H	-2.107197711	 3.9730230527	 0.0524926083	 0.146104
112.2483	192.6196	288.3008	442.5554	451.7438	538.8321	556.3467	670.8954	725.2378	784.7232	794.4677	836.8692	941.6959	1019.9018	1067.5628	1101.8522	1326.9975	1410.8963	1448.5279	1556.6779	1694.2418	1935.4185	3149.7474	3262.1056
FC1=CC=NC(=O)O1	Fc1ccnc(=O)o1	
InChI=1S/C4H2FNO2/c5-3-1-2-6-4(7)8-3/h1-2H	InChI=1S/C4H2FNO2/c5-3-1-2-6-4(7)8-3/h1-2H
