11
gdb 23766	3.34998	2.37529	1.38983	4.7724	56.72	-0.2401	-0.0625	0.1776	781.3	0.072341	-442.55187	-442.545877	-442.544933	-442.582136	22.435	
F	-0.0089810086	 0.0240096139	 0.004352278	-0.048995
C	-0.0605180591	 1.3489855684	 0.0115338842	 0.111149
C	-1.2323162765	 2.0189955725	 0.0301718169	-0.190952
C	-1.2157823595	 3.4501959649	 0.0369951856	-0.182492
C	-0.0228167045	 4.0739162821	 0.0244327446	 0.089062
O	 1.1494028561	 3.4104317877	 0.0058140548	-0.21554
C	 1.2369127513	 2.0157446963	-0.0021960573	 0.356839
O	 2.3171200575	 1.4978809476	-0.0189531955	-0.330592
H	-2.164832781	 1.4658404315	 0.0396591151	 0.136392
H	-2.1317773298	 4.024206594	 0.0518063182	 0.126937
H	 0.1230173042	 5.1466474511	 0.0278063254	 0.148192
132.4435	274.678	310.8778	422.9478	492.8661	527.6704	564.7063	567.6293	744.8529	770.6735	789.5828	904.9392	927.4348	943.0557	1010.6603	1073.7839	1102.5726	1263.5273	1297.4939	1370.3379	1442.1935	1612.5047	1695.6839	1851.8169	3200.9937	3218.4131	3239.8289
FC1=CC=COC1=O	Fc1cccoc1=O	
InChI=1S/C5H3FO2/c6-4-2-1-3-8-5(4)7/h1-3H	InChI=1S/C5H3FO2/c6-4-2-1-3-8-5(4)7/h1-3H
