11
gdb 23627	4.11553	1.98162	1.33758	6.4715	56.19	-0.2436	-0.0415	0.2021	803.8958	0.074036	-434.899072	-434.892905	-434.891961	-434.929885	22.476	
F	 0.0783593669	 0.0695128887	 0.0024732818	-0.057366
C	-0.0580411609	 1.3831563403	 0.0112991565	 0.409354
N	-1.1892742757	 1.9320298048	 0.0297644032	-0.32645
C	-1.2289754231	 3.3472496786	 0.0383259048	 0.368365
N	-2.359008299	 3.9280719412	 0.0560260502	-0.495398
N	-0.0005022963	 4.0731195767	 0.0247675407	-0.280238
C	 1.0900870284	 3.4163443369	 0.006398842	 0.09384
N	 1.1496309937	 2.0332669515	-0.0015420294	-0.37186
H	-2.2000775776	 4.9363724817	 0.0587508623	 0.225684
H	 2.0526067627	 3.9225785641	-0.0042576032	 0.148021
H	 2.0173190608	 1.5220655653	-0.0161629889	 0.286046
72.5219	211.427	376.2934	379.5307	487.8798	534.2354	545.9899	574.0665	709.8186	789.2674	789.8837	911.6102	926.4169	962.4691	999.4294	1067.8586	1163.8216	1296.3257	1321.855	1411.2071	1482.7671	1670.9306	1717.4014	1791.1211	3165.4042	3487.4281	3650.9158
FC1=NC(=N)N=CN1	FC1=NC(=NCN1)[NH]	
InChI=1S/C3H3FN4/c4-2-6-1-7-3(5)8-2/h1H,(H2,5,6,7,8)	InChI=1S/C3H4FN4/c4-2-6-1-7-3(5)8-2/h5H,1H2,(H,6,7,8)
