9
gdb 23819	3.29605	1.01643	0.7895	1.9393	47.97	-0.2605	-0.095	0.1655	1245.8379	0.041167	-474.648119	-474.63824	-474.637296	-474.688973	27.652	
F	-0.3947832676	-0.5294065193	-0.1525999085	-0.073252
C	-0.1583994842	 0.7818730976	 0.0433299285	-0.102195
C	-1.2743685807	 1.7116697838	 0.1053318234	 0.076882
O	-1.1782329235	 2.9074659522	 0.2768077214	-0.283977
N	 0.7143737087	 5.8296250695	-0.2568557849	-0.000794
N	 1.2004295864	 4.8477416736	-0.3376855139	-0.004212
C	 1.1058773442	 1.1991217779	 0.1791276109	 0.446687
O	 2.1844229772	 1.5892977149	 0.301390527	-0.162189
H	-2.2486121705	 1.1929030498	-0.0233045939	 0.103049
5.0886	24.0476	38.6248	47.4003	82.5407	141.8771	215.8755	267.0647	296.4279	504.5972	529.4155	719.9527	798.5398	1010.9817	1266.9749	1361.4458	1421.4607	1765.8186	2229.0712	2432.585	2910.5313	5.0906	24.0456	38.6242	47.4002	82.5402	141.8768	215.8756	267.0649	296.4279	504.5971	529.4157	719.9526	798.5397	1010.9812	1266.9751	1361.4458	1421.4603	1765.8181	2229.0707	2432.585	2910.5311
FC1=CON=NC1=O	F[C](C=O)[C][O].N#N	
InChI=1S/C3HFN2O2/c4-2-1-8-6-5-3(2)7/h1H	InChI=1S/C3HFO2.N2/c4-3(1-5)2-6;1-2/h1H;
