11
gdb 49953	2.40682	1.27626	0.98314	1.9732	62.77	-0.3031	-0.0962	0.2069	1140.5023	0.062899	-451.525145	-451.516862	-451.515918	-451.558787	28.058	
O	-0.2239042848	 0.4249825851	 0.8053082199	-0.212928
C	 0.2751199733	 0.8200140955	-0.2118419827	 0.14553
C	 1.4478158066	 1.7676481377	-0.1995179736	-0.086937
O	 2.3141507334	 1.7182662952	-1.3288485723	-0.227809
C	 1.5236944932	 2.8897096052	-1.1941597444	 0.139082
C	 0.4710827343	 3.0754527797	-2.1777897179	 0.274072
N	-0.3707367287	 3.2240347986	-2.9539039608	-0.301426
C	 2.2269581339	 4.1002433718	-0.8120553198	 0.270855
N	 2.7809601097	 5.0627316554	-0.4962108584	-0.294723
H	-0.0668089912	 0.5176107505	-1.221756821	 0.131751
H	 1.9232779604	 1.9263408052	 0.766564891	 0.162532
81.1251	104.9392	133.2928	181.4572	223.5815	309.8757	337.2837	458.8754	493.515	529.5238	590.748	630.2476	639.4321	886.9206	921.3918	983.4987	1074.4809	1099.7139	1206.7551	1268.0143	1350.0805	1425.0866	1836.314	2370.398	2371.2474	2947.2896	3154.5495
O=CC1OC1(C#N)C#N	O=C[C@H]1OC1(C#N)C#N	
InChI=1S/C5H2N2O2/c6-2-5(3-7)4(1-8)9-5/h1,4H	InChI=1S/C5H2N2O2/c6-2-5(3-7)4(1-8)9-5/h1,4H/t4-/m1/s1
