11
gdb 132400	1.90606	1.75502	0.91371	2.1609	55.84	-0.2708	-0.0322	0.2386	1079.5617	0.064709	-545.966118	-545.959634	-545.95869	-545.997373	24.568	
F	 0.0016440107	 0.031322797	 0.0036938907	-0.060565
C	-0.0163545103	 1.3569044766	 0.010602297	 0.382019
C	-1.2364060161	 2.0187751844	 0.0309508152	-0.43159
C	-1.1629165362	 3.4052094604	 0.0369121745	 0.376766
F	-2.2925701563	 4.0955730373	 0.0561396804	-0.059667
N	-0.0538223835	 4.1163702717	 0.0250169059	-0.370695
C	 1.0741691113	 3.4357469804	 0.0058453498	 0.376766
F	 2.1846606296	 4.1566886737	-0.0059692751	-0.059666
C	 1.1852744488	 2.0518319357	-0.0026559364	-0.43159
H	-2.1794198207	 1.4912796154	 0.04144755	 0.139111
H	 2.1422611826	 1.5502726774	-0.0185123419	 0.139111
213.54	218.2427	266.2465	337.3982	350.7768	509.148	523.0078	605.2695	615.4633	654.6821	680.6885	747.3353	847.255	851.43	998.4076	1020.2462	1070.1265	1171.024	1189.9439	1343.1778	1446.288	1468.3862	1501.1678	1644.9157	1648.6214	3240.3621	3240.7497
FC1=CC(F)=NC(F)=C1	Fc1cc(F)nc(F)c1	
InChI=1S/C5H2F3N/c6-3-1-4(7)9-5(8)2-3/h1-2H	InChI=1S/C5H2F3N/c6-3-1-4(7)9-5(8)2-3/h1-2H
