11
gdb 133332	2.46149	1.87678	1.06487	4.589	60.46	-0.2505	-0.0901	0.1605	974.6824	0.06344	-529.950315	-529.942592	-529.941647	-529.982728	27.725	
N	 0.0350726009	 1.3425442541	-0.1328656335	-0.577658
C	-0.0124050759	 0.0066664649	-0.0252425498	 0.046651
C	-1.1269335003	-0.768370807	 0.0685100293	 0.29188
F	-2.3430947217	-0.2263531253	 0.059868862	-0.066096
N	-1.0850909623	-2.1118364158	 0.1747762351	-0.134561
N	-0.0511502123	-2.7866498118	 0.199098986	 0.009376
O	 1.2317585011	-2.0344077692	 0.1020837183	-0.265854
C	 1.2870882351	-0.6946630446	-0.0065754668	 0.478708
O	 2.3359347726	-0.0992327301	-0.0848303501	-0.362982
H	 0.9468035159	 1.767760346	-0.1950726277	 0.29505
H	-0.7990933931	 1.9011481687	-0.1561995429	 0.285485
94.6151	176.5933	180.5545	260.539	309.7243	313.3861	422.7743	508.4115	530.1045	536.133	573.2671	652.7421	656.9303	778.5186	792.234	877.1039	960.6332	1183.5557	1244.4356	1347.7087	1428.8215	1556.6088	1601.3166	1713.5357	1801.6151	3600.5631	3744.7172
NC1=C(F)N=NOC1=O	N[C]1C(=N[N]OC1=O)F	
InChI=1S/C3H2FN3O2/c4-2-1(5)3(8)9-7-6-2/h5H2	InChI=1S/C3H2FN3O2/c4-2-1(5)3(8)9-7-6-2/h5H2
