10
gdb 123289	10.19689	0.68786	0.64439	3.1357	81.71	-0.2734	-0.0951	0.1783	1556.621	0.052575	-430.349414	-430.342149	-430.341205	-430.381871	25.704	
C	 0.092918683	-3.7450468636	-0.0196906936	-0.557652
C	 0.0509412853	-2.538367322	-0.0122490553	 0.274953
C	 0.004309129	-1.182703783	-0.0039280805	-0.023795
C	-0.041293837	 0.0271577667	 0.0035355798	 0.412988
C	-0.0678424806	 1.4311463482	 0.0118439936	 0.126143
N	-1.1522557447	 2.1707051591	 0.0299296114	-0.133426
O	-0.7027702115	 3.4355966373	 0.0311289552	-0.139137
N	 0.7019462758	 3.4241754979	 0.0125411234	 0.016746
N	 1.075468479	 2.2307342561	 0.000954577	-0.187484
H	 0.1301257317	-4.8072270666	-0.026216961	 0.210664
75.695	88.1508	234.7756	243.9124	444.6945	449.5074	488.556	561.5491	605.4858	631.0034	637.0078	638.1567	671.6209	791.6761	957.1724	993.1123	1061.1508	1118.1685	1280.8357	1507.2174	1554.2057	2189.6381	2358.5127	3496.1548
C#CC#CC1=NON=N1	C#CC#Cc1nonn1	
InChI=1S/C5HN3O/c1-2-3-4-5-6-8-9-7-5/h1H	InChI=1S/C5HN3O/c1-2-3-4-5-6-8-9-7-5/h1H
