8
gdb 8962	5.51494	0.93067	0.79629	0.6333	67.05	-0.334	-0.1551	0.1789	1243.3275	0.036026	-375.105034	-375.097763	-375.096818	-375.13758	23.569	
O	 0.0332145212	-0.0749930449	 0.003047624	-0.220309
C	-0.0165602238	 1.1306939229	 0.0067504085	 0.186147
C	 1.195133945	 1.9608949744	 0.0007957026	 0.239537
N	 2.1500489549	 2.6126380867	-0.0039033595	-0.296722
C	-1.2491797139	 1.8812778338	 0.0172096622	 0.147914
C	-2.2950414964	 2.4882258044	 0.026002529	 0.002368
C	-3.4735879631	 3.1758113645	 0.0359168488	 0.240809
N	-4.4759476039	 3.7619613683	 0.0443295145	-0.299744
67.9049	108.5398	178.3858	260.7342	272.7724	345.7719	480.1717	532.9485	590.1279	592.7001	684.2845	773.8349	965.8868	1219.6586	1749.9782	2258.4232	2344.1949	2387.2132
O=C(C#N)C#CC#N	O=C(C#N)C#CC#N	
InChI=1S/C5N2O/c6-3-1-2-5(8)4-7	InChI=1S/C5N2O/c6-3-1-2-5(8)4-7
