9
gdb 21445	3.38293	2.57368	1.46166	2.2456	49.95	-0.3165	-0.0974	0.2191	732.6491	0.046269	-466.569063	-466.562679	-466.561735	-466.600591	22.069	
N	-0.013545371	 1.2304152176	 0.3923899863	-0.429383
C	-0.0406498454	 0.0360598758	 0.0110181853	 0.290283
O	 1.1032744738	-0.6114790668	-0.4324162097	-0.25405
N	 1.0798634586	-1.9439140829	-0.8591879801	 0.095153
N	 0.050912654	-2.6049242871	-0.8631621756	 0.096094
O	-1.1834659143	-2.0619264983	-0.4352232083	-0.238937
C	-1.3064095028	-0.7610235967	 0.0113512345	 0.422369
O	-2.3725640401	-0.3697016664	 0.3558484482	-0.242006
H	 0.9271244172	 1.6260730548	 0.3284205495	 0.260477
51.7576	99.8733	343.0279	421.9655	451.0407	520.5688	546.5006	580.3357	677.4135	781.2546	833.266	905.0291	922.3092	981.7765	995.0823	1141.3722	1308.1701	1605.4058	1763.7673	1900.8635	3478.9089
N=C1ON=NOC1=O	[NH][C]1ON=NOC1=O	
InChI=1S/C2HN3O3/c3-1-2(6)8-5-4-7-1/h3H	InChI=1S/C2HN3O3/c3-1-2(6)8-5-4-7-1/h3H
