11
gdb 11155	6.10981	1.44422	1.17661	2.1429	60.89	-0.2812	-0.0617	0.2195	920.9153	0.071492	-397.409737	-397.403154	-397.40221	-397.440657	23.905	
O	 0.0739786317	 0.0216799902	 0.0025430775	-0.303259
C	-0.0310010381	 1.2050819821	 0.0103299137	 0.399486
C	-1.243738804	 2.1275837076	 0.0320313647	-0.319729
N	-0.7076421564	 3.4814870473	 0.0315316424	-0.301714
C	 0.5597484961	 3.344352942	 0.0125730732	 0.251492
O	 1.0727709032	 2.058933026	-0.0010126299	-0.225865
C	 1.5235153383	 4.3851813274	 0.0047192449	 0.280828
C	 2.348563586	 5.2580279325	-0.0021142305	-0.335804
H	-1.8813645424	 1.9499354908	-0.8410192817	 0.168131
H	-1.856661399	 1.9408230004	 0.9207310278	 0.168099
H	 3.0740413245	 6.0348766137	-0.0080851921	 0.218336
126.9831	151.4736	199.4959	378.001	435.2218	541.6968	561.0656	583.1949	672.3614	688.4398	707.2509	737.0695	859.234	922.8113	983.1335	1036.5151	1123.5158	1181.8181	1241.3816	1312.9661	1436.9063	1680.8655	1927.2972	2254.0252	3053.5564	3087.4871	3497.7094
O=C1CN=C(O1)C#C	O=C1CN=C(O1)C#C	
InChI=1S/C5H3NO2/c1-2-4-6-3-5(7)8-4/h1H,3H2	InChI=1S/C5H3NO2/c1-2-4-6-3-5(7)8-4/h1H,3H2
