11
gdb 5350	6.03706	1.62284	1.27902	4.0331	65.94	-0.2787	-0.0885	0.1901	851.4152	0.075094	-356.497715	-356.491833	-356.490889	-356.527901	21.312	
N	-0.0153091149	-1.1481643805	-0.0030585772	-0.312578
C	 0.0125056559	 0.0079927231	 0.0028869271	 0.248009
C	-0.0069487714	 1.4455934766	 0.0105354909	 0.204658
C	-1.2299718116	 2.1275306992	 0.0307122237	-0.035758
N	-1.2867997883	 3.4575674834	 0.0383601475	-0.227145
C	-0.1182163978	 4.0992859928	 0.0257630795	 0.006374
C	 1.1007857181	 3.4179500512	 0.0056461812	-0.016693
N	 1.1675069278	 2.0901936179	-0.002129884	-0.284586
H	-2.1687307686	 1.5815865881	 0.04068476	 0.146507
H	-0.149502843	 5.1853365886	 0.0317970647	 0.135967
H	 2.0433639239	 3.9581075196	-0.0043998434	 0.135247
141.7258	167.9508	346.4781	428.6081	492.729	567.5408	596.0129	641.4444	784.1318	821.197	887.7926	977.6097	1007.5281	1028.3226	1075.5227	1199.6667	1237.2161	1251.6563	1322.8857	1425.91	1495.7679	1577.3898	1603.1664	2353.4094	3166.2806	3179.7153	3184.7585
N#CC1=CN=CC=N1	N#Cc1cnccn1	
InChI=1S/C5H3N3/c6-3-5-4-7-1-2-8-5/h1-2,4H	InChI=1S/C5H3N3/c6-3-5-4-7-1-2-8-5/h1-2,4H
