10
gdb 131338	3.69884	1.79143	1.2069	2.7214	54.37	-0.2619	-0.0883	0.1736	876.5357	0.054972	-500.839248	-500.833158	-500.832214	-500.869784	22.775	
O	 0.1040761426	 1.3443940059	 0.1667616732	-0.402372
C	 0.0775702198	 0.0222740663	 0.0380514972	 0.478964
N	 0.0748524965	-0.7037250775	-1.0416036268	-0.312631
N	 0.0416577369	-2.0802146256	-0.6952661585	-0.343292
C	 0.0267040244	-2.0705828063	 0.5950842361	 0.557662
O	-0.003574481	-2.9278579912	 1.6282476578	-0.238706
N	 0.000172079	-2.0958023886	 2.8064386052	 0.035484
N	 0.0297264122	-0.8861182069	 2.4873161479	-0.036736
N	 0.0470587358	-0.8129570043	 1.1349042788	-0.071727
H	 0.1224315138	 1.7190973181	-0.7251615808	 0.333354
185.7685	228.6936	288.9554	380.7868	434.3978	552.6041	624.1528	662.7614	670.4681	699.4113	723.966	732.7094	836.1692	998.9551	1016.6203	1158.6253	1213.4781	1292.9392	1396.1902	1470.5568	1484.9343	1625.0169	1668.4393	3783.1554
OC1=NN=C2ON=NN12	Oc1nnc2onnn12	
InChI=1S/C2HN5O2/c8-1-3-4-2-7(1)5-6-9-2/h(H,3,8)	InChI=1S/C2HN5O2/c8-1-3-4-2-7(1)5-6-9-2/h(H,3,8)
