11
gdb 23787	3.99207	2.00586	1.33521	5.9256	56.02	-0.2426	-0.058	0.1846	807.3695	0.073035	-434.891029	-434.884628	-434.883684	-434.921642	23.405	
N	 0.0176328387	 1.3550565624	 0.0695557889	-0.568401
C	 0.0155318734	 0.004711618	 0.0228198201	 0.410901
C	-1.1816942079	-0.756610592	 0.0113479764	-0.043029
N	-1.1579694029	-2.0709794808	-0.0146389541	-0.160459
N	 0.0182620161	-2.7142412486	-0.0284362952	-0.274905
C	 1.092543315	-1.9453010772	-0.0167672224	 0.380523
F	 2.2400926098	-2.5909040727	-0.0324016478	-0.050785
N	 1.1889750318	-0.6272309696	 0.0054018238	-0.36324
H	 0.8981433609	 1.8346583439	-0.0196082337	 0.277196
H	-0.8316468198	 1.8788453194	-0.0430931707	 0.274356
H	-2.1599433652	-0.2857039027	 0.0234778746	 0.117843
173.756	185.6039	223.0545	335.6838	468.2237	510.4594	526.7933	570.5194	600.4113	728.6164	776.8115	814.4004	896.7038	1000.4836	1018.3292	1109.5541	1158.2974	1253.988	1403.1553	1432.6596	1510.2953	1572.843	1598.5094	1653.2752	3175.3438	3613.9452	3746.7372
NC1=CN=NC(F)=N1	Nc1cnnc(F)n1	
InChI=1S/C3H3FN4/c4-3-7-2(5)1-6-8-3/h1H,(H2,5,7,8)	InChI=1S/C3H3FN4/c4-3-7-2(5)1-6-8-3/h1H,(H2,5,7,8)
