11
gdb 133522	1.92718	1.68271	1.08562	3.3155	53.51	-0.3074	-0.0099	0.2975	1040.3153	0.060303	-545.88235	-545.87393	-545.872986	-545.916187	29.295	
F	-0.0180991021	 0.0649794327	-0.0248404337	-0.060898
C	-0.0095346448	 1.3975553543	-0.0052415453	 0.301441
F	 1.2486506577	 1.818106795	-0.0929101807	-0.055349
F	-0.6815807601	 1.8401184062	-1.0696774254	-0.061294
C	-0.688133936	 1.9054144882	 1.291593879	-0.471647
C	-0.0101896096	 1.4061465335	 2.4841141319	 0.328846
C	 0.538954377	 0.9914807667	 3.4654315443	-0.395557
C	-0.7600017457	 3.3742738349	 1.2780718152	 0.30588
N	-0.8301337734	 4.5257564073	 1.2754320933	-0.30072
H	-1.7143515272	 1.5169746161	 1.2547398181	 0.186584
H	 1.0304583544	 0.6256416652	 4.3338947633	 0.222713
56.2242	124.4244	137.8157	154.2484	318.9298	325.6013	363.0642	420.6588	461.2756	535.3841	569.8581	584.1662	668.6498	694.0066	719.1393	845.527	964.0453	1055.2525	1165.3606	1230.8898	1258.652	1305.5525	1331.7626	2259.861	2378.9458	3040.587	3500.2777
FC(F)(F)C(C#C)C#N	FC(F)(F)[C@@H](C#C)C#N	
InChI=1S/C5H2F3N/c1-2-4(3-9)5(6,7)8/h1,4H	InChI=1S/C5H2F3N/c1-2-4(3-9)5(6,7)8/h1,4H/t4-/m0/s1
