11
gdb 23873	3.04852	1.74823	1.41129	1.7209	45.21	-0.2895	0.013	0.3025	841.7778	0.066377	-528.863071	-528.85523	-528.854286	-528.89565	27.695	
O	-0.0372120778	 1.4380062215	 0.0097234869	-0.398548
C	 0.0296210594	 0.0296766328	-0.0293766261	-0.1935
C	 0.6814624704	-0.4844888473	-1.2340658698	 0.306322
C	 1.2283837263	-0.8634991907	-2.2333339629	-0.436428
C	 0.7318546711	-0.4941338151	 1.2387087625	 0.27594
F	 0.0561583364	-0.1297368668	 2.3296463713	-0.063329
F	 0.8233932277	-1.8265215439	 1.22966658	-0.066572
F	 1.9702717824	 0.0139414876	 1.33079929	-0.0852
H	 0.8597880082	 1.774908503	-0.1040608774	 0.298423
H	-1.0050182678	-0.3267655977	 0.0216049402	 0.149948
H	 1.7081943136	-1.2088128932	-3.1163359247	 0.212943
65.1637	134.4328	204.2958	229.3837	302.2115	358.4197	396.6917	434.4414	527.6146	560.0318	603.6611	661.5221	694.2912	714.9148	837.804	974.8906	1097.0869	1172.5322	1226.8726	1271.6568	1279.6248	1356.2529	1420.8255	2244.4254	3067.6885	3500.7206	3798.497
OC(C#C)C(F)(F)F	O[C@@H](C#C)C(F)(F)F	
InChI=1S/C4H3F3O/c1-2-3(8)4(5,6)7/h1,3,8H	InChI=1S/C4H3F3O/c1-2-3(8)4(5,6)7/h1,3,8H/t3-/m0/s1
