11
gdb 21666	3.75341	2.0004	1.30624	4.2711	59.78	-0.2424	-0.0432	0.1992	831.7054	0.075271	-389.7785	-389.771923	-389.770979	-389.809244	23.999	
N	-0.0582334193	 1.3624161584	 0.1551853376	-0.599479
C	 0.006764663	-0.0022669153	 0.0465453255	 0.284891
N	-1.0707834376	-0.7868297985	 0.0309198721	-0.266776
N	-0.5443405774	-2.0179480438	-0.0153898604	-0.077783
N	 0.7599984708	-2.1160563613	-0.037802977	-0.257292
C	 1.1599565686	-0.8332336797	 0.0007029735	 0.187183
C	 2.5142901615	-0.4278665571	-0.015007328	 0.224519
N	 3.5977923774	-0.0185146615	-0.0321498248	-0.343597
H	 0.7414307992	 1.8672655456	-0.1957966842	 0.273595
H	-0.943176918	 1.7682235896	-0.1095502463	 0.269701
H	-1.1331274982	-2.8353353264	-0.033588738	 0.305037
137.3101	174.746	306.1065	332.9384	380.7871	506.1473	534.9837	558.5149	569.7691	607.1376	699.0373	764.1363	783.5209	987.6736	1084.0763	1194.9732	1221.2342	1305.4022	1367.1673	1459.9697	1540.5126	1585.7665	1657.0157	2346.9614	3580.3702	3667.4028	3686.3894
NC1=NNN=C1C#N	Nc1n[nH]nc1C#N	
InChI=1S/C3H3N5/c4-1-2-3(5)7-8-6-2/h(H3,5,6,7,8)	InChI=1S/C3H3N5/c4-1-2-3(5)7-8-6-2/h(H3,5,6,7,8)
