11
gdb 132239	2.07563	1.99506	1.01727	0.877	56.36	-0.2816	-0.0476	0.234	1017.8679	0.067053	-530.040715	-530.033949	-530.033005	-530.072509	24.662	
F	 0.0470135512	 0.1078417607	 0.07369949	-0.020068
C	-0.0935509755	 1.3999769482	 0.0059993133	 0.412274
N	-1.2212594248	 1.9440985267	 0.164432244	-0.397679
C	-1.2683477224	 3.339097031	 0.0734736935	 0.435983
N	-2.2991608754	 4.0619959363	 0.2021209008	-0.53109
N	-0.0377798708	 3.970070101	-0.1863661015	-0.395033
C	 1.1664205777	 3.3623786344	-0.3533205434	 0.512839
O	 2.2174105237	 3.8752070493	-0.5738270884	-0.335671
O	 1.0973563986	 1.9589097885	-0.2415894178	-0.222001
H	-3.108091542	 3.4707950825	 0.3854988682	 0.244656
H	-0.0488049204	 4.9779551914	-0.2563164488	 0.295791
113.3316	140.2394	204.1289	374.5579	386.8754	502.7501	551.4722	632.6361	640.4364	670.6245	716.0615	747.1843	760.4244	882.1638	911.6906	974.2321	1047.9365	1153.548	1237.3181	1378.6439	1396.1003	1421.1111	1754.5398	1762.1014	1926.3625	3521.016	3625.2827
FC1=NC(=N)NC(=O)O1	FC1=N[C]([NH])NC(=O)O1	
InChI=1S/C3H2FN3O2/c4-1-6-2(5)7-3(8)9-1/h(H2,5,7,8)	InChI=1S/C3H2FN3O2/c4-1-6-2(5)7-3(8)9-1/h(H2,5,7,8)
