10
gdb 130838	4.72752	1.15221	0.92642	1.7467	55.59	-0.3076	-0.1475	0.1601	1103.0292	0.052048	-500.862536	-500.855186	-500.854242	-500.895912	24.066	
O	-0.0802692945	-0.0032498129	 0.0019522934	-0.176928
C	-0.0446192067	 1.1918048714	 0.008748951	 0.071324
C	 1.3399440613	 1.8914573096	-0.0009654317	 0.375402
O	 2.3838680582	 1.3250449436	-0.0147749229	-0.212175
N	 1.278126361	 3.3379008427	 0.0081664098	 0.043626
N	 0.1385143596	 4.0465495006	 0.0232986312	-0.094818
N	 0.4985895346	 5.2752804932	 0.0276737974	-0.05679
N	 1.8696985555	 5.3360829955	 0.014132131	-0.051411
N	 2.346868213	 4.1471188682	 0.0019825604	-0.059478
H	-0.933661692	 1.842816098	 0.0214832203	 0.161248
55.9083	63.1887	171.5548	179.565	298.8111	389.6048	480.3244	555.876	712.6564	754.5224	827.3957	867.4473	957.3432	1012.8693	1079.2003	1101.8372	1153.8789	1252.1229	1358.6827	1404.8491	1436.5812	1834.086	1880.0907	3017.8918
O=CC(=O)N1N=NN=N1	O=CC(=O)n1nnnn1	
InChI=1S/C2HN5O2/c8-1-2(9)7-5-3-4-6-7/h1H	InChI=1S/C2HN5O2/c8-1-2(9)7-5-3-4-6-7/h1H
