10
gdb 21984	5.66261	1.71065	1.31377	3.906	51.9	-0.3011	-0.0935	0.2076	810.3158	0.062545	-446.688362	-446.682482	-446.681538	-446.719094	20.4	
O	-0.0837902191	 0.0182226939	 0.0039297389	-0.364965
N	-0.0230560027	 1.2434489991	 0.0069937347	 0.366372
O	 0.9921000299	 1.9170227913	 0.0024484195	-0.335805
C	-1.2994858773	 1.9247158677	 0.0171922305	 0.393519
N	-1.3926261495	 3.25065375	 0.0215417627	-0.237443
N	-2.6964289491	 3.430460641	 0.0304783579	-0.046752
N	-3.463403227	 2.3412792934	 0.0323291344	-0.184534
C	-2.5779347063	 1.3485000373	 0.023877491	-0.073432
H	-3.0970230031	 4.356662493	 0.0356705205	 0.313218
H	-2.8677167057	 0.3122444334	 0.0228407399	 0.169822
71.0465	227.5398	228.7298	438.9725	542.1335	592.8368	660.2739	728.7945	797.0842	843.3883	911.3512	985.5857	1025.8736	1134.6203	1208.5379	1257.9072	1350.4464	1414.7221	1418.4061	1466.7498	1545.1486	1649.6543	3303.991	3650.3166
O=N(=O)C1=NNN=C1	O=N(=O)c1n[nH]nc1	
InChI=1S/C2H2N4O2/c7-6(8)2-1-3-5-4-2/h1H,(H,3,4,5)	InChI=1S/C2H2N4O2/c7-6(8)2-1-3-5-4-2/h1H,(H,3,4,5)
