11
gdb 131049	6.02746	0.99546	0.85436	5.326	55.7	-0.2778	-0.0488	0.229	1203.1521	0.065279	-525.849804	-525.842493	-525.841548	-525.882541	25.366	
O	-0.378340935	 0.116864221	 0.003388491	-0.23677
C	-0.0920133039	 1.2799649452	 0.0084183372	 0.159186
N	 1.2084986369	 1.778953973	-0.0005037773	-0.425341
C	 2.3580359578	 1.032759327	-0.0157374594	 0.583467
N	 2.4954297789	-0.2463724826	-0.0268887286	-0.188559
O	 3.9201525408	-0.4080592417	-0.0397332036	-0.226721
C	 4.5243911209	 0.7958269155	-0.0354451254	 0.527201
O	 5.6818234484	 1.0402954872	-0.0429910285	-0.349543
O	 3.5032833932	 1.7497293831	-0.0195388167	-0.241318
H	-0.8219962554	 2.1094923798	 0.0207135715	 0.112231
H	 1.3439568575	 2.7797060526	 0.0052074998	 0.286168
51.9167	149.9055	169.8727	241.9723	299.3241	370.3756	529.1952	550.6326	611.1548	699.1646	758.3749	774.2751	866.8649	879.8222	966.0566	995.1224	1018.796	1109.1651	1175.5455	1337.3751	1431.7585	1559.1998	1699.0229	1849.0985	1961.6723	2977.6291	3620.8019
O=CNC1=NOC(=O)O1	O=CNc1noc(=O)o1	
InChI=1S/C3H2N2O4/c6-1-4-2-5-9-3(7)8-2/h1H,(H,4,5,6)	InChI=1S/C3H2N2O4/c6-1-4-2-5-9-3(7)8-2/h1H,(H,4,5,6)
