10
gdb 23834	3.42417	2.46076	1.4318	2.4156	51.8	-0.2656	-0.0832	0.1824	746.5158	0.062127	-454.770829	-454.765048	-454.764104	-454.800972	21.117	
F	 0.0152613941	 0.0781740979	 0.003805304	-0.021876
C	-0.0316960618	 1.3885090296	 0.0112083482	 0.261567
N	-1.1639419822	 1.9794932335	 0.0291900662	-0.286568
C	-1.1407490134	 3.3539267235	 0.036151695	 0.084487
N	-0.0816650683	 4.1025841451	 0.0261403689	-0.180297
N	 1.0899013133	 3.4386286819	 0.0073108331	-0.255137
C	 1.2851974051	 2.0637986877	-0.0023672041	 0.313542
O	 2.3750501521	 1.5372344959	-0.0194969185	-0.357974
H	-2.0973917165	 3.8598420318	 0.0513188874	 0.153073
H	 1.9192563476	 4.0192886531	-0.0005439403	 0.289183
133.0763	281.0199	311.7582	446.8464	518.3003	552.0786	592.238	626.569	735.0208	755.0308	800.5221	928.4137	929.6109	1143.0639	1181.3961	1259.2863	1360.7064	1392.217	1446.341	1576.2174	1670.9472	1813.2014	3227.7937	3588.7366
FC1=NC=NNC1=O	Fc1ncn[nH]c1=O	
InChI=1S/C3H2FN3O/c4-2-3(8)7-6-1-5-2/h1H,(H,7,8)	InChI=1S/C3H2FN3O/c4-2-3(8)7-6-1-5-2/h1H,(H,7,8)
