10
gdb 25154	3.86644	1.30177	0.97388	4.0367	62.22	-0.3208	-0.1344	0.1863	1059.1245	0.054808	-467.655025	-467.64818	-467.647236	-467.687013	23.9	
O	-0.0628732258	-0.0332362865	 0.0039221915	-0.286222
C	 0.0360756082	 1.1470768787	 0.0088981665	 0.469202
O	-1.1986532627	 1.9052987133	 0.0299245762	-0.182522
C	-1.1472250615	 3.2236715863	 0.0359601632	 0.168215
N	-0.0763168057	 3.9413989064	 0.0246525928	-0.300693
C	 1.0777690665	 3.1921559362	 0.0045212691	 0.251263
N	 1.1916584938	 1.8996221487	-0.0035884037	-0.328216
C	 2.3019647535	 3.9633039555	-0.0083734565	 0.320345
N	 3.2746398992	 4.5864835453	-0.0185873464	-0.293277
H	-2.1315126155	 3.6853763962	 0.0520817173	 0.181903
90.5957	132.8889	161.2888	340.7632	452.8258	468.2087	482.8374	572.7013	605.3702	672.8229	758.9626	816.0991	819.6498	937.5692	1009.9782	1079.853	1248.4499	1311.3442	1413.9134	1553.8729	1654.8524	1920.0806	2366.322	3186.8372
O=C1OC=NC(=N1)C#N	O=c1ocnc(n1)C#N	
InChI=1S/C4HN3O2/c5-1-3-6-2-9-4(8)7-3/h2H	InChI=1S/C4HN3O2/c5-1-3-6-2-9-4(8)7-3/h2H
