11
gdb 133472	3.57612	1.16822	1.0404	0.8759	48.83	-0.2925	-0.0366	0.2559	1052.6212	0.063012	-583.040832	-583.033812	-583.032868	-583.074046	24.773	
F	 0.3611729407	 0.1210348653	 0.1204335362	-0.070243
C	-0.0279067041	 1.4002732773	 0.0064380016	 0.224277
F	 1.0750214665	 2.1187985095	-0.254423365	-0.070216
F	-0.8374208613	 1.4896275522	-1.0586114103	-0.074033
C	-0.7160037205	 1.8767809131	 1.2360138745	-0.026761
C	-1.9830974319	 2.3511211109	 1.3524698766	 0.004466
O	-2.2372705563	 2.6799091368	 2.6201797542	-0.160643
N	-1.1071124186	 2.4218818302	 3.3965620044	-0.120564
C	-0.2155515988	 1.9477199482	 2.5665363164	-0.045506
H	-2.7806238978	 2.5027294002	 0.642776847	 0.180917
H	 0.760520162	 1.6684905362	 2.9361813943	 0.158306
24.9934	142.9445	167.295	370.6203	399.3424	411.0674	550.7918	583.2752	629.6853	694.6741	744.1073	875.6431	886.6642	915.2669	937.3176	987.5149	1130.7882	1160.3652	1181.0376	1194.2076	1232.751	1340.7886	1412.8135	1493.1938	1657.7459	3254.6743	3279.3745
FC(F)(F)C1=CON=C1	FC(F)(F)c1conc1	
InChI=1S/C4H2F3NO/c5-4(6,7)3-1-8-9-2-3/h1-2H	InChI=1S/C4H2F3NO/c5-4(6,7)3-1-8-9-2-3/h1-2H
