11
gdb 130824	4.58199	1.10784	0.89214	2.873	59.89	-0.278	-0.1364	0.1416	1158.6475	0.064596	-488.674368	-488.666908	-488.665964	-488.707888	24.814	
O	-0.098120584	 0.0559072177	 0.0034891893	-0.197353
C	-0.0326105288	 1.2522298496	 0.0083145277	 0.087732
C	 1.3471356172	 1.960593011	-0.0017541469	 0.196156
O	 2.3741740944	 1.3373335526	-0.0145967461	-0.228959
C	 1.3419034702	 3.4553478736	 0.0058815811	 0.352033
N	 2.3593499324	 4.2657207242	-0.0002529249	-0.276657
C	 1.7433717357	 5.4869416318	 0.0123366615	 0.047975
N	 0.4340425869	 5.4516166918	 0.0248312345	-0.088554
O	 0.1557941781	 4.091028674	 0.0210963624	-0.189731
H	-0.925995056	 1.905496741	 0.0202836189	 0.128616
H	 2.2779704437	 6.4253413728	 0.0115715424	 0.168742
48.575	67.9752	157.0636	193.1535	296.9542	394.8031	466.2548	536.7442	659.8155	743.8887	830.5416	926.1548	938.7677	952.4016	977.5507	1007.0952	1066.0424	1193.1312	1246.3514	1300.4492	1411.4741	1466.2928	1598.535	1805.2169	1841.015	2958.262	3269.7902
O=CC(=O)C1=NC=NO1	O=CC(=O)c1ncno1	
InChI=1S/C4H2N2O3/c7-1-3(8)4-5-2-6-9-4/h1-2H	InChI=1S/C4H2N2O3/c7-1-3(8)4-5-2-6-9-4/h1-2H
