11
gdb 133409	3.29185	1.36891	0.96685	0.574	58.65	-0.2573	-0.0697	0.1876	1045.7098	0.064567	-537.900762	-537.893987	-537.893043	-537.932321	25.258	
F	 0.0656118639	 0.0741959551	 0.0018956967	-0.024901
C	-0.0647715614	 1.3757213097	 0.01106829	 0.438339
C	-1.240915349	 2.0162449011	 0.0306126577	-0.387756
C	-1.2295036881	 3.4613644894	 0.0386581551	 0.220165
N	-2.2788382685	 4.1936889358	 0.0570475689	-0.526847
C	 0.1565488702	 3.9749690282	 0.0228407731	 0.304346
F	 0.2858896738	 5.2883091622	 0.0286325162	-0.039852
N	 1.2583950353	 3.327882697	 0.0042652539	-0.12341
O	 1.1530971678	 1.9360539573	-0.0022264963	-0.245587
H	-2.1706919351	 1.4662209138	 0.0400650322	 0.152548
H	-2.024032189	 5.1823262605	 0.0592419125	 0.232955
108.9028	187.704	327.2484	360.886	371.6482	442.9128	455.0533	519.5354	609.7385	659.2641	721.7899	740.1273	785.685	848.1777	902.6742	970.2106	1032.573	1128.7915	1252.3779	1311.1064	1359.9174	1443.0029	1660.7289	1694.503	1722.6237	3245.9883	3478.2464
FC1=CC(=N)C(F)=NO1	F[C]1C=C([NH])C(=NO1)F	
InChI=1S/C4H2F2N2O/c5-3-1-2(7)4(6)8-9-3/h1,7H	InChI=1S/C4H2F2N2O/c5-3-1-2(7)4(6)8-9-3/h1,7H
