11
gdb 20690	7.27184	1.35795	1.15248	5.226	59.12	-0.309	-0.0724	0.2366	948.8364	0.072426	-393.596886	-393.590061	-393.589117	-393.628518	23.273	
C	 0.0083049992	 1.4784415359	-0.0526058465	-0.501579
C	-0.0664017014	-0.0008079637	 0.0351567978	 0.413161
N	-1.0501211721	-0.7873974828	-0.285350066	-0.328896
C	-0.5298113872	-2.0243594005	 0.0146003216	 0.25782
N	 0.6936992579	-2.016847025	 0.489839207	-0.147203
O	 1.0054024906	-0.6666716075	 0.5045388744	-0.174306
C	-1.2496945334	-3.2427019647	-0.169235856	 0.275855
N	-1.8417608259	-4.2227452102	-0.3221660915	-0.309543
H	 0.8301109074	 1.7816983676	-0.7078211514	 0.169713
H	-0.9321342843	 1.8606140615	-0.4480755539	 0.175272
H	 0.1920285891	 1.9114386094	 0.9350094545	 0.169706
69.7241	145.7449	159.7101	283.9323	345.2031	505.751	547.1757	575.6631	676.9123	729.7187	767.9335	955.2176	990.0945	1028.9273	1070.4207	1075.7786	1286.3919	1364.7545	1411.1775	1472.6488	1473.8646	1512.5083	1620.1421	2376.6804	3057.1812	3118.7187	3169.3602
CC1=NC(=NO1)C#N	Cc1nc(no1)C#N	
InChI=1S/C4H3N3O/c1-3-6-4(2-5)7-8-3/h1H3	InChI=1S/C4H3N3O/c1-3-6-4(2-5)7-8-3/h1H3
