11
gdb 130611	3.73943	1.30533	0.96757	3.1033	69.78	-0.2695	-0.0917	0.1778	1090.0139	0.064585	-451.495772	-451.48853	-451.487586	-451.528038	26.058	
O	-0.0535052013	-0.0353100306	 0.0044236637	-0.318303
C	-0.0262755648	 1.1723290928	 0.0097146001	 0.366224
C	-1.2669871247	 1.9834533361	 0.0315697023	-0.041972
N	-1.3248558543	 3.2629133008	 0.0385808815	-0.042327
O	-0.0925358741	 3.9247974701	 0.0238493907	-0.241607
C	 1.052638886	 3.1946749212	 0.0034932236	 0.264835
N	 1.1603103392	 1.915010893	-0.0039392603	-0.352633
C	 2.1947877605	 4.0482214141	-0.0082159957	 0.274786
C	 3.1575941658	 4.7664634519	-0.0181115667	-0.303624
H	-2.2275280746	 1.4762452817	 0.0430610372	 0.168158
H	 4.0157921224	 5.3944916488	-0.0270266465	 0.226463
86.3053	127.1781	146.1078	333.9367	404.5482	431.5096	501.363	528.4116	578.9063	688.0043	694.3391	715.2624	730.6409	791.4067	898.1821	949.1178	958.0905	976.9713	1194.3275	1287.7742	1308.1023	1614.7168	1666.9261	1805.6439	2247.7133	3190.4202	3493.6547
O=C1C=NOC(=N1)C#C	O=c1cnoc(n1)C#C	
InChI=1S/C5H2N2O2/c1-2-5-7-4(8)3-6-9-5/h1,3H	InChI=1S/C5H2N2O2/c1-2-5-7-4(8)3-6-9-5/h1,3H
