10
gdb 128876	2.03646	1.89822	0.98246	3.1042	67.81	-0.3097	-0.1124	0.1973	1053.2825	0.055257	-430.474069	-430.467151	-430.466207	-430.506009	24.259	
N	 0.1221873561	-1.1451698723	-0.0050766032	-0.308208
C	 0.0379555265	 0.0084346417	 0.0024737656	 0.270919
C	-0.0814255293	 1.4171438241	 0.0118091315	 0.306318
C	-1.1773339582	 2.2448783904	 0.0321943722	-0.043634
C	-0.5947943253	 3.5474460126	 0.030701481	-0.016735
N	 0.7101730054	 3.4952504376	 0.0117388306	-0.097509
O	 1.0425068743	 2.1506570925	-0.000317947	-0.195516
C	-2.5468917681	 1.8964210327	 0.0501154762	 0.218973
N	-3.6732890728	 1.6329068337	 0.0649527118	-0.315908
H	-1.0992380284	 4.502310047	 0.0431104914	 0.1813
105.894	163.6224	190.7533	210.0682	455.4867	485.5933	510.655	536.1018	634.3046	647.5087	651.4102	751.5602	919.7474	935.7473	958.1161	1151.8593	1200.7391	1248.5746	1394.1762	1494.174	1624.1496	2356.5999	2364.1932	3263.9811
N#CC1=C(C=NO1)C#N	N#Cc1c(cno1)C#N	
InChI=1S/C5HN3O/c6-1-4-3-8-9-5(4)2-7/h3H	InChI=1S/C5HN3O/c6-1-4-3-8-9-5(4)2-7/h3H
