10
gdb 23821	4.03312	2.0222	1.34688	0.1064	53.06	-0.2809	-0.0775	0.2033	788.2409	0.060646	-454.72184	-454.715909	-454.714964	-454.752315	21.441	
F	 0.0119272002	 0.0767652344	 0.0033082485	-0.026748
C	-0.0858642562	 1.3788105937	 0.0115753887	 0.44123
N	-1.2166884314	 1.9462799684	 0.0301520886	-0.410207
C	-1.1937948161	 3.3485482493	 0.0375321611	 0.331349
N	-2.215611388	 4.1070290061	 0.0556349537	-0.505724
C	 0.1463132449	 3.9537709797	 0.0225968102	 0.057276
N	 1.2569282355	 3.3239845083	 0.004019814	-0.064021
O	 1.1413996869	 1.8980391306	-0.0022361974	-0.238377
H	-3.0653275223	 3.5379314044	 0.0641061287	 0.238946
H	 0.2337497865	 5.0359182151	 0.0273291839	 0.176276
105.2622	209.8537	368.7878	393.2112	496.6078	532.7167	580.8181	714.2843	743.0272	759.9958	881.6867	930.2467	972.3446	975.8659	1006.4821	1162.5477	1261.971	1347.5186	1393.8016	1670.8804	1713.9562	1734.2843	3200.4593	3463.9995
FC1=NC(=N)C=NO1	FC1=N[C]([NH])C=NO1	
InChI=1S/C3H2FN3O/c4-3-7-2(5)1-6-8-3/h1,5H	InChI=1S/C3H2FN3O/c4-3-7-2(5)1-6-8-3/h1,5H
