9
gdb 8961	5.48356	0.93676	0.80008	4.859	76.32	-0.2929	-0.1281	0.1648	1266.595	0.04653	-359.013946	-359.006366	-359.005422	-359.046608	25.527	
O	 0.0556733333	-0.0802893251	 0.0029408268	-0.236705
C	-0.0228494767	 1.1271113793	 0.0067438092	 0.133784
C	 1.1866256525	 1.9690367683	 0.0009002175	 0.229449
N	 2.1397253378	 2.6236654081	-0.0037320426	-0.312109
C	-1.2497510048	 1.8668385049	 0.0170870512	 0.537481
C	-2.2968159133	 2.4802206838	 0.0258633466	-0.374102
C	-3.4636154783	 3.1687581799	 0.0356559759	 0.319007
C	-4.5040447063	 3.7818698009	 0.0443804588	-0.517294
H	-5.4186917343	 4.3235557298	 0.0520613167	 0.220488
66.5238	106.7141	179.2046	262.1705	269.9446	338.8623	488.431	509.0229	568.3969	602.384	617.2591	661.1223	683.9949	780.6455	968.4241	1238.9081	1736.3794	2176.7403	2333.2785	2341.0129	3495.0956
O=C(C#N)C#CC#C	O=C(C#N)C#CC#C	
InChI=1S/C6HNO/c1-2-3-4-6(8)5-7/h1H	InChI=1S/C6HNO/c1-2-3-4-6(8)5-7/h1H
