11
gdb 23902	4.53981	1.15795	1.13625	3.3312	41.7	-0.2971	-0.0116	0.2855	988.9533	0.067219	-566.060538	-566.052982	-566.052038	-566.093713	25.231	
F	-0.1133292561	 0.1473770017	 0.559862906	-0.077312
C	-0.0499231111	 1.4303660999	 0.1761839037	 0.281022
F	 1.2289563188	 1.7319810064	-0.0419652842	-0.060505
F	-0.7170273008	 1.5558424352	-0.9785008131	-0.07028
C	-0.6773275807	 2.3386502644	 1.2284455317	-0.223013
O	-0.0006673644	 2.2054221616	 2.4639562186	-0.17296
C	-0.482658778	 1.2861100032	 3.3422374792	 0.181684
O	 0.0561091218	 1.0579924873	 4.3775857902	-0.253802
H	-0.5794105652	 3.3762473567	 0.9051312732	 0.159964
H	-1.7403344751	 2.0850651027	 1.3098062477	 0.142355
H	-1.4158103191	 0.8077041611	 2.991185227	 0.092847
64.1501	72.831	146.469	239.7436	297.6795	372.4704	403.6219	530.6507	534.7175	638.1514	709.0611	847.0009	964.6686	1031.8978	1068.5016	1140.9946	1203.7715	1224.6526	1299.8123	1338.4194	1413.3058	1433.896	1483.328	1884.8319	2969.7737	3055.2288	3136.2018
FC(F)(F)COC=O	FC(F)(F)COC=O	
InChI=1S/C3H3F3O2/c4-3(5,6)1-8-2-7/h2H,1H2	InChI=1S/C3H3F3O2/c4-3(5,6)1-8-2-7/h2H,1H2
