10
gdb 14584	24.20402	0.54562	0.54412	2.4353	83.38	-0.289	-0.1069	0.1822	1835.6311	0.057428	-380.094052	-380.08581	-380.084866	-380.128183	25.708	
O	-0.2237188245	 0.1726128043	 0.6867096016	-0.20938
C	-0.0220951479	 1.1493647259	 0.0040325311	-0.027319
C	 1.2115206097	 1.8953122755	 0.0157364265	 0.252027
C	 2.2427850845	 2.5382332888	 0.0093760078	-0.133395
C	 3.3894891389	 3.2519549963	 0.0024290243	-0.133397
C	 4.4207522074	 3.8948803465	-0.0036958429	 0.252029
C	 5.65401244	 4.6410240477	-0.0305525913	-0.027319
O	 5.8680183453	 5.6112131147	 0.6576906464	-0.20938
H	-0.7841633825	 1.5496260559	-0.6931054265	 0.118067
H	 6.4033287292	 4.2475226644	-0.7451435071	 0.118067
50.465	70.6108	83.3349	169.0699	174.8536	308.9323	313.5163	438.186	571.8506	577.6159	641.8257	775.8015	950.2633	1013.8035	1013.9605	1277.4614	1414.4554	1417.8814	1755.5971	1761.4521	2232.7906	2320.5382	2936.4319	2937.2082
O=CC#CC#CC=O	O=CC#CC#CC=O	
InChI=1S/C6H2O2/c7-5-3-1-2-4-6-8/h5-6H	InChI=1S/C6H2O2/c7-5-3-1-2-4-6-8/h5-6H
