11
gdb 23820	3.96371	2.00549	1.3317	3.2725	56.98	-0.2444	-0.0541	0.1902	806.2812	0.073928	-434.87396	-434.867819	-434.866875	-434.904545	22.547	
F	 0.0803785102	 0.0846484681	 0.0024795942	-0.052577
C	-0.0650227831	 1.3981925776	 0.0115205695	 0.428998
N	-1.21958992	 1.9254097585	 0.0301175402	-0.399383
C	-1.2594720622	 3.3351712037	 0.0386684658	 0.326394
N	-2.3273123341	 4.0336550359	 0.0568376778	-0.524078
C	 0.0473404602	 4.0149093438	 0.024373123	 0.024526
N	 1.1856576431	 3.4171164945	 0.0057881988	-0.171176
N	 1.1210536225	 2.0502088298	-0.0006342387	-0.306369
H	-3.1395106139	 3.4130849302	 0.0643906621	 0.226592
H	 0.0630671506	 5.0990390797	 0.029885148	 0.15454
H	 2.0009066167	 1.5609142483	-0.0154424607	 0.292534
102.4714	210.8328	361.4245	390.1628	499.5478	501.9692	533.434	579.9209	705.0798	753.1751	762.309	912.0409	962.1704	968.9671	1038.3992	1085.8417	1170.6551	1298.3602	1325.7446	1378.4147	1497.5129	1659.0384	1704.8492	1718.238	3208.427	3464.9693	3656.5524
FC1=NC(=N)C=NN1	Fc1nc([NH])cn[nH]1	
InChI=1S/C3H3FN4/c4-3-7-2(5)1-6-8-3/h1H,(H2,5,7,8)	InChI=1S/C3H8FN4/c4-3-7-2(5)1-6-8-3/h2-3,5-8H,1H2
