11
gdb 25351	4.07692	1.23612	0.94853	1.8497	60.43	-0.286	-0.129	0.1571	1095.4401	0.065525	-488.73332	-488.726191	-488.725247	-488.765837	24.649	
O	-1.0011200502	 1.4283031367	 0.0179927208	-0.210664
C	 0.0976742219	 1.0428800777	-0.2688074741	 0.12941
C	 1.3431355455	 1.8932836608	-0.122230981	 0.249068
N	 2.4517393035	 1.3185025424	-0.4797936075	-0.326945
C	 3.6278661563	 2.0332310614	-0.3739921246	 0.46829
O	 4.7241659715	 1.6733406209	-0.6507290081	-0.296649
O	 3.4897347268	 3.3750017793	 0.1352375134	-0.185025
C	 2.2859006548	 3.8226631953	 0.4595854166	 0.164069
N	 1.1822576456	 3.168666208	 0.3667196579	-0.288735
H	 0.3173415024	 0.0340164214	-0.6677091325	 0.122813
H	 2.309743212	 4.8446288859	 0.831280899	 0.17437
77.2819	94.6644	204.1627	219.4745	392.3159	410.7182	517.7529	574.9725	649.0286	659.6175	771.1832	812.2583	832.5888	941.9559	1003.4321	1044.7578	1060.1246	1245.7218	1332.0131	1383.8843	1417.3484	1564.7935	1661.7136	1835.9686	1908.8772	2965.2081	3180.1699
O=CC1=NC(=O)OC=N1	O=Cc1nc(=O)ocn1	
InChI=1S/C4H2N2O3/c7-1-3-5-2-9-4(8)6-3/h1-2H	InChI=1S/C4H2N2O3/c7-1-3-5-2-9-4(8)6-3/h1-2H
