11
gdb 130787	2.58154	1.90062	1.24631	3.517	60.48	-0.2842	-0.13	0.1542	915.9724	0.064369	-488.646714	-488.639542	-488.638598	-488.678948	25.431	
O	 0.0960106447	-0.0137222161	-0.4758814643	-0.263435
C	 0.0127830237	 1.0717827119	 0.0076345902	 0.366285
O	-1.079206341	 1.4140288717	 0.7593176268	-0.233132
N	-1.4983150806	 2.7602611884	 0.9190316963	-0.097202
C	-0.6602948859	 3.5862888846	 1.4336222759	 0.13069
N	 0.6229814124	 3.4164820405	 1.9316735831	-0.170956
C	 1.4806014971	 2.7217705337	 1.2981786748	-0.056919
C	 1.2029477503	 2.0591800042	-0.0275997935	 0.233472
O	 1.909691927	 2.1780372388	-0.9900956945	-0.246658
H	-1.0757115473	 4.5817602452	 1.5721058032	 0.167808
H	 2.4802616397	 2.5958568673	 1.716430692	 0.170046
61.2501	136.3409	260.5458	295.8449	320.9504	390.826	415.8797	557.1799	601.4136	673.013	702.7015	811.0044	856.3153	923.401	942.0622	973.6949	1042.2006	1073.1419	1196.3431	1352.9497	1359.9504	1616.1275	1704.733	1825.6096	1852.9187	3131.5751	3176.5401
O=C1ON=CN=CC1=O	O=c1oncncc1=O	
InChI=1S/C4H2N2O3/c7-3-1-5-2-6-9-4(3)8/h1-2H	InChI=1S/C4H2N2O3/c7-3-1-5-2-6-9-4(3)8/h1-2H
