11
gdb 130541	3.73265	1.26741	0.94615	2.0665	67.16	-0.2977	-0.1127	0.185	1105.4402	0.064071	-451.489373	-451.481909	-451.480965	-451.522183	26.153	
O	 0.0083534622	-0.0564902304	 0.0041500787	-0.275829
C	-0.0163364649	 1.1573273141	 0.0077353833	 0.144001
C	 1.1744414571	 1.9742895804	 0.0013984577	 0.286419
C	 2.1742431535	 2.6432467405	-0.0039704053	-0.398493
C	-1.313342247	 1.8741005037	 0.0191993271	 0.330013
C	-2.5903135825	 1.3967917911	 0.0270508212	-0.167759
N	-3.4185763408	 2.4890701907	 0.0361946594	-0.113586
N	-2.7453662504	 3.5554386421	 0.0344544841	 0.006074
O	-1.3656019593	 3.207700565	 0.023383051	-0.213291
H	 3.0598898532	 3.2323114403	-0.0087339449	 0.22915
H	-2.954727431	 0.3847091425	 0.0267653576	 0.173301
60.2756	111.9135	181.6336	229.8769	269.7284	435.5078	486.7485	633.033	656.1363	670.2386	691.0039	697.4101	722.0982	794.4398	879.8785	980.5951	992.777	1095.0229	1133.8221	1264.4481	1361.2881	1428.7444	1587.9886	1740.6239	2221.9022	3306.395	3490.5273
O=C(C#C)C1=CN=NO1	O=C(C#C)c1cnno1	
InChI=1S/C5H2N2O2/c1-2-4(8)5-3-6-7-9-5/h1,3H	InChI=1S/C5H2N2O2/c1-2-4(8)5-3-6-7-9-5/h1,3H
