11
gdb 21633	3.51566	2.50254	1.46191	4.1573	56.55	-0.2575	-0.0745	0.183	757.5797	0.073434	-430.732031	-430.725678	-430.724734	-430.7625	23.535	
N	 0.0098965149	 1.294041636	-0.1171413253	-0.530398
C	-0.0471642835	-0.0370562434	-0.0186060068	 0.30072
N	-1.167307214	-0.6970834268	 0.0590212578	-0.33809
C	-1.0241115149	-2.0533317299	 0.154034464	 0.103323
N	 0.0442812286	-2.7783433906	 0.1786390106	-0.099645
O	 1.2581861835	-2.0468737064	 0.0933640236	-0.243285
C	 1.2883855821	-0.7059525434	-0.0050677989	 0.430049
O	 2.3297917236	-0.101362586	-0.076556189	-0.347258
H	 0.917405941	 1.7280487549	-0.1724917007	 0.294949
H	-0.8356732922	 1.8388552391	-0.1343490532	 0.282331
H	-1.9390832891	-2.6352056036	 0.2204853079	 0.147303
124.9512	228.4561	324.3427	331.8525	460.3675	512.7431	549.4354	558.5452	596.3546	639.0578	722.5491	822.5299	924.707	965.9453	975.442	1021.4931	1203.1171	1266.5027	1349.537	1445.4978	1568.7523	1621.2706	1682.6026	1817.5668	3186.2724	3597.0863	3736.6851
NC1=NC=NOC1=O	Nc1ncnoc1=O	
InChI=1S/C3H3N3O2/c4-2-3(7)8-6-1-5-2/h1H,(H2,4,5,6)	InChI=1S/C3H3N3O2/c4-2-3(7)8-6-1-5-2/h1H,(H2,4,5,6)
