10
gdb 21816	3.86766	2.03062	1.33153	1.8122	50.13	-0.2916	-0.0718	0.2198	800.7707	0.060742	-450.628008	-450.621825	-450.620881	-450.658727	21.539	
O	-0.0644836123	-0.0528554305	-0.0000566497	-0.27246
C	-0.0358753917	 1.1459807964	 0.0085149951	 0.18409
N	 1.1639041639	 1.872346797	 0.0001787012	-0.197482
C	 2.4501739904	 1.3786275588	-0.0182534278	 0.092152
N	 3.3355565911	 2.3083029192	-0.0213427966	-0.106349
O	 2.60652539	 3.528437541	-0.0040435184	-0.23579
C	 1.2651883802	 3.2791538881	 0.0094407697	 0.547711
O	 0.3900470508	 4.0900576869	 0.0254298282	-0.368246
H	-0.9066379343	 1.8183572942	 0.0234634312	 0.152129
H	 2.6748658918	 0.3234653389	-0.0286539428	 0.204245
135.0382	192.0879	219.2844	286.3812	400.3933	611.4522	616.5799	701.7779	767.5084	833.5654	899.9526	902.8062	950.1221	1046.2627	1111.2991	1204.8946	1255.3751	1386.6159	1425.7187	1649.3433	1831.3953	1907.8554	3046.1241	3280.6691
O=CN1C=NOC1=O	O=Cn1cnoc1=O	
InChI=1S/C3H2N2O3/c6-2-5-1-4-8-3(5)7/h1-2H	InChI=1S/C3H2N2O3/c6-2-5-1-4-8-3(5)7/h1-2H
