11
gdb 11200	6.50771	1.36652	1.13731	0.7636	53.54	-0.2851	-0.1017	0.1834	935.5491	0.071329	-434.582126	-434.575484	-434.57454	-434.613476	22.996	
O	-0.097756162	 0.027160555	-0.0011144449	-0.207001
C	 0.0193401574	 1.2210578842	 0.0061565565	 0.106175
C	 1.351821017	 1.9111287002	-0.0027815468	 0.317329
N	 2.4969664101	 1.361605898	-0.0194122107	-0.2549
C	 3.4509946719	 2.4631092	-0.0209079401	-0.314381
C	 2.6110775506	 3.7365759389	-0.002481279	 0.406608
O	 2.8988180732	 4.8877384584	 0.0042921277	-0.294072
O	 1.2838322771	 3.2875140102	 0.0088630581	-0.229991
H	-0.8413382637	 1.9183693462	 0.0206121709	 0.118492
H	 4.1105352915	 2.4176170803	 0.852520843	 0.17591
H	 4.0922672969	 2.4311177685	-0.9084160945	 0.17583
88.725	164.5229	196.6157	239.9053	410.7653	512.2502	522.2948	634.8234	702.1895	765.1162	857.1118	923.2127	978.0355	1030.7705	1035.0721	1118.9045	1181.46	1224.0384	1304.4317	1423.3002	1430.8776	1695.1875	1837.3232	1933.193	2949.3086	3057.6867	3092.751
O=CC1=NCC(=O)O1	O=CC1=NCC(=O)O1	
InChI=1S/C4H3NO3/c6-2-3-5-1-4(7)8-3/h2H,1H2	InChI=1S/C4H3NO3/c6-2-3-5-1-4(7)8-3/h2H,1H2
