11
gdb 21374	5.60572	2.3605	1.66105	3.5133	57.16	-0.2449	-0.0281	0.2168	681.0558	0.077373	-389.764117	-389.758908	-389.757964	-389.793225	20.126	
N	-0.051963221	 1.3542430625	 0.0102482193	-0.401332
C	 1.2836996	 1.7467576782	-0.0005316091	 0.021512
N	 2.1552136919	 0.7693074525	-0.014529674	-0.329766
C	 1.3530826827	-0.3537807467	-0.0130179531	 0.347095
N	 1.4654973542	-1.6844071338	-0.0216290079	-0.310033
N	 0.1817916787	-2.0550893516	-0.0111715592	-0.097883
N	-0.7744279945	-1.0998931179	 0.0035780732	-0.342518
C	-0.0100224208	-0.0174793505	 0.0021940487	 0.394956
H	-0.8529262073	 1.9612684761	 0.0216766905	 0.279386
H	 1.539450668	 2.7971917801	 0.0028792665	 0.142873
H	-0.0743035519	-3.0285915689	-0.0141330549	 0.295709
270.7891	353.1011	411.7325	447.7779	526.0032	643.683	679.4335	741.0228	767.0546	807.1581	868.5053	951.2492	983.6594	1062.6595	1145.8168	1186.7008	1210.0234	1307.6498	1373.7862	1443.0041	1472.8856	1513.5525	1532.805	1655.8775	3244.8487	3680.0782	3682.1605
N1C=NC2=NNN=C12	[nH]1cnc2n[nH]nc12	
InChI=1S/C3H3N5/c1-4-2-3(5-1)7-8-6-2/h1H,(H2,4,5,6,7,8)	InChI=1S/C3H3N5/c1-4-2-3(5-1)7-8-6-2/h1H,(H2,4,5,6,7,8)
