11
gdb 21415	6.93736	1.38941	1.15758	2.9857	62.44	-0.2253	-0.0581	0.1673	924.4461	0.07422	-389.777793	-389.771024	-389.77008	-389.808797	24.409	
N	-0.1109306139	 1.3176402095	 0.0305320388	-0.599873
C	-0.0091256231	 0.0504298391	 0.0295824413	 0.44502
N	 1.06790521	-0.8383077053	 0.0433103594	-0.288095
N	 0.7154567355	-2.154768268	 0.0360629594	-0.236648
C	-0.5862234054	-2.1298950054	 0.0179503131	 0.30665
N	-1.0797583725	-0.8440443916	 0.0128949385	-0.370676
C	-1.4105179841	-3.2839704767	 0.0046380333	 0.262561
N	-2.1233899519	-4.19505288	-0.0066643596	-0.320818
H	 0.7964928654	 1.774358601	 0.0442678757	 0.218537
H	 2.0424178108	-0.5937536348	 0.0559153213	 0.286724
H	-2.0428562608	-0.5560273679	 0.0017078488	 0.296619
117.196	158.4405	213.7449	348.5217	422.4425	440.1311	516.5557	561.0318	587.8539	689.6141	712.7773	726.8536	761.0179	1000.4289	1020.0046	1063.8698	1125.2911	1254.8401	1339.4389	1392.8975	1472.8675	1593.6038	1777.2141	2358.6826	3538.6755	3691.2371	3693.5235
N=C1NN=C(N1)C#N	[NH][C@H]1NN=C(N1)C#N	
InChI=1S/C3H3N5/c4-1-2-6-3(5)8-7-2/h(H3,5,6,7,8)	InChI=1S/C3H4N5/c4-1-2-6-3(5)8-7-2/h3,5,8H,(H,6,7)/t3-/m1/s1
