11
gdb 132690	3.22409	1.3958	0.97409	1.4614	57.17	-0.2511	-0.0578	0.1933	1035.9349	0.065593	-537.990144	-537.983541	-537.982596	-538.021404	24.951	
O	 0.1091180439	 1.3361013905	 0.0748963685	-0.395823
C	 0.0715994004	-0.0015836994	 0.0262020623	 0.294605
N	 0.0831635442	-0.6213185501	-1.1398807293	-0.377149
C	 0.0441821613	-1.9438258033	-1.1158667475	 0.301951
F	 0.0563103814	-2.5567232398	-2.2897784173	-0.059211
C	-0.0067971283	-2.6819803609	 0.0539617854	-0.164594
N	-0.0182184064	-2.0443898539	 1.2341433435	-0.269664
C	 0.0197123999	-0.7436546968	 1.2246702125	 0.265411
F	 0.0092004922	-0.0955892381	 2.3797665547	-0.048432
H	 0.1413745971	 1.6516085857	-0.8392310635	 0.312365
H	-0.0379181057	-3.7647241241	 0.0463444707	 0.140541
130.6362	246.6247	299.8773	361.609	412.6068	480.1837	496.3848	543.8469	553.8287	617.1151	686.3138	732.7536	790.7877	815.709	890.9762	1036.6039	1172.1805	1261.8591	1284.0053	1340.6048	1371.1851	1490.4593	1527.1133	1620.9507	1650.0956	3206.9568	3770.9446
OC1=NC(F)=CN=C1F	Oc1nc(F)cnc1F	
InChI=1S/C4H2F2N2O/c5-2-1-7-3(6)4(9)8-2/h1H,(H,8,9)	InChI=1S/C4H2F2N2O/c5-2-1-7-3(6)4(9)8-2/h1H,(H,8,9)
