9
gdb 23645	4.21797	2.02779	1.36944	3.3672	46.87	-0.3115	-0.0934	0.2181	760.292	0.049085	-474.680042	-474.674305	-474.67336	-474.710405	20.246	
F	 0.045072244	 0.0938801341	 0.0027080973	-0.020721
C	-0.021139942	 1.3977672772	 0.0107914551	 0.374314
N	-1.1954669312	 1.925904431	 0.0296187385	-0.370135
C	-1.282433727	 3.2903598768	 0.03799508	 0.473522
O	-2.2468022459	 3.9775381249	 0.0547977246	-0.296419
O	 0.0055442461	 3.994441515	 0.0240259807	-0.189531
C	 1.1140598822	 3.2902541083	 0.0050798511	 0.174159
N	 1.2005440488	 2.0012706973	-0.0029061474	-0.321501
H	 2.011291255	 3.9047294853	-0.0040342199	 0.176312
111.5576	190.8497	411.5309	427.1731	536.2128	563.4952	590.2229	649.5395	767.3946	815.5706	865.2554	955.8807	1015.8084	1170.9021	1270.0903	1374.5441	1444.3356	1578.2462	1686.2488	1937.1743	3183.7293
FC1=NC(=O)OC=N1	Fc1nc(=O)ocn1	
InChI=1S/C3HFN2O2/c4-2-5-1-8-3(7)6-2/h1H	InChI=1S/C3HFN2O2/c4-2-5-1-8-3(7)6-2/h1H
