11
gdb 129313	3.84707	1.2967	0.97256	2.4861	73.53	-0.2771	-0.13	0.1471	1091.2801	0.063441	-447.629568	-447.62201	-447.621066	-447.662565	27.027	
N	 0.0102818314	 1.311142547	 0.0673407026	-0.499367
C	-0.0138815186	 0.053558298	-0.032352964	 0.446837
O	 1.1538470928	-0.683752563	-0.1811798746	-0.262238
N	 1.139461844	-2.1134362456	-0.0009410265	 0.068164
N	 0.0584961609	-2.6808202942	 0.1068425113	-0.1325
C	-1.1597011681	-1.9223848153	 0.019695239	 0.187053
N	-1.2161108592	-0.6453234398	-0.031911718	-0.26101
C	-2.328405762	-2.7294656227	 0.0044344665	 0.280427
C	-3.3008464603	-3.4363335703	-0.0103002582	-0.296017
H	 0.9713557502	 1.6545462661	 0.068109352	 0.242635
H	-4.1678558711	-4.0519111101	-0.0238646401	 0.226018
40.98	125.9641	146.7183	291.9662	366.1458	431.6244	481.0234	529.3204	571.1997	675.5278	682.1312	691.7955	709.1887	746.7274	794.3244	870.6915	894.1032	973.6624	1063.7136	1209.108	1289.9236	1610.8861	1675.8956	1737.9853	2241.9966	3494.0221	3500.5862
N=C1ON=NC(=N1)C#C	[NH]C1=NC(=N[N]O1)C#C	
InChI=1S/C4H2N4O/c1-2-3-6-4(5)9-8-7-3/h1,5H	InChI=1S/C4H2N4O/c1-2-3-6-4(5)9-8-7-3/h1,5H
