11
gdb 25126	2.99432	1.63456	1.27229	3.0309	59.11	-0.2809	-0.1018	0.1791	920.9167	0.065945	-488.721226	-488.714353	-488.713409	-488.753065	24.566	
O	 0.0964319717	 0.3844494082	-1.0038206137	-0.268929
C	 0.0433746741	 1.28708941	-0.2373753783	 0.460511
O	-1.2322287292	 1.747697843	 0.1836060423	-0.198831
C	-1.5151294218	 3.0573437461	 0.2968564269	 0.158451
N	-0.8292131377	 4.0803328576	-0.0103559086	-0.281723
C	 0.521079906	 4.0847777319	-0.3605606701	 0.356662
O	 1.0151725826	 4.845761602	-1.1511186655	-0.290414
C	 1.3634151848	 3.0957894697	 0.413700199	-0.066163
N	 1.1187454874	 1.8477774129	 0.4425971086	-0.208264
H	-2.5265232176	 3.1754600448	 0.6796700393	 0.169724
H	 2.2428458397	 3.4715093639	 0.9379618402	 0.168976
88.4808	120.2106	251.3737	316.8703	371.7745	432.3712	511.5122	584.5985	672.3079	686.3539	765.4183	794.5668	864.8809	882.2235	950.2418	995.1675	1033.9876	1143.4866	1241.3473	1363.4037	1429.4446	1686.2864	1732.8746	1813.1696	1903.623	3135.2106	3175.2016
O=C1OC=NC(=O)C=N1	O=c1ocnc(=O)cn1	
InChI=1S/C4H2N2O3/c7-3-1-5-4(8)9-2-6-3/h1-2H	InChI=1S/C4H2N2O3/c7-3-1-5-4(8)9-2-6-3/h1-2H
