11
gdb 132131	3.06267	1.41917	0.96979	3.0891	58.66	-0.2402	-0.0733	0.1669	1048.2072	0.06393	-541.794699	-541.787811	-541.786867	-541.826342	25.54	
F	 0.0794390466	 0.0542453115	 0.0023430668	-0.012837
C	-0.0547123362	 1.3561724978	 0.0111234384	 0.303843
C	-1.2541224794	 1.9851693807	 0.0309034923	-0.004149
F	-2.3965323929	 1.2966291363	 0.0428664191	-0.054792
C	-1.253526047	 3.4007806365	 0.0384469883	-0.138155
C	-0.0884005389	 4.1012235652	 0.0262274977	-0.271815
C	 1.1929212246	 3.4420700538	 0.0051689293	 0.447717
O	 2.2959585794	 3.897894363	-0.0075583306	-0.3187
O	 1.0946442514	 1.9950482315	-0.0011972465	-0.241272
H	-2.2123742922	 3.9081345832	 0.0542800186	 0.148335
H	-0.0640984654	 5.1823146505	 0.0316537566	 0.141826
112.7587	197.6496	281.0603	330.0967	357.7534	448.1318	453.3075	498.5634	605.6449	658.6393	721.6278	725.8257	785.6678	830.7566	849.6359	990.0401	1036.92	1144.3081	1253.6604	1292.6349	1396.6297	1469.9235	1580.8829	1726.1141	1880.6524	3198.197	3235.0861
FC1=C(F)C=CC(=O)O1	Fc1c(F)ccc(=O)o1	
InChI=1S/C5H2F2O2/c6-3-1-2-4(8)9-5(3)7/h1-2H	InChI=1S/C5H2F2O2/c6-3-1-2-4(8)9-5(3)7/h1-2H
