11
gdb 21401	7.20131	1.38559	1.16201	3.6485	63.25	-0.2326	-0.0517	0.1809	931.8065	0.071917	-393.535287	-393.528521	-393.527576	-393.566227	24.97	
N	-0.1571153291	 1.3088009018	 0.0093096619	-0.607361
C	-0.0280839078	 0.0540937129	 0.0012567013	 0.473357
N	-1.0427302832	-0.8870034244	 0.0020975082	-0.389218
C	-0.4695929874	-2.133613214	-0.0086886645	 0.293045
N	 0.8284119196	-2.0772777488	-0.0164183463	-0.180812
O	 1.1295821384	-0.694684782	-0.0102463755	-0.231272
C	-1.2123106851	-3.336158666	-0.0110863545	 0.253598
C	-1.874932432	-4.3384670912	-0.0128186607	-0.363289
H	 0.7482858761	 1.7712588745	 0.0063725846	 0.237884
H	-2.0224071212	-0.6652152645	 0.0093348859	 0.294661
H	-2.4481415884	-5.2334070384	-0.0144757305	 0.219407
117.8309	147.2206	233.8026	403.8942	408.3031	452.1809	555.0397	569.8008	642.9759	693.8716	700.7372	725.9822	746.5412	765.9701	914.9126	953.3218	1032.8026	1072.0163	1247.3402	1309.1137	1477.6288	1599.826	1802.382	2253.2377	3498.0553	3543.2719	3699.9469
N=C1NC(=NO1)C#C	[NH][C@H]1NC(=NO1)C#C	
InChI=1S/C4H3N3O/c1-2-3-6-4(5)8-7-3/h1H,(H2,5,6,7)	InChI=1S/C4H4N3O/c1-2-3-6-4(5)8-7-3/h1,4-5H,(H,6,7)/t4-/m0/s1
