11
gdb 131041	2.91145	1.72886	1.08473	1.4888	60.81	-0.2819	-0.1364	0.1456	976.5017	0.065546	-484.860407	-484.853314	-484.85237	-484.892916	24.558	
O	-0.0327904275	-0.0686284989	-0.0016126588	-0.224738
C	-0.0360629254	 1.1217838898	 0.0072495976	 0.196226
N	 1.1757752924	 1.9126145333	 0.0002757801	-0.160397
N	 2.3315651122	 1.2106107	-0.0172246106	 0.00816
N	 3.4267315751	 1.8455944491	-0.0241356453	-0.17213
C	 3.3706577994	 3.2408446222	-0.0131293915	 0.127521
N	 2.3218403217	 3.9858063823	 0.0035595224	-0.280659
C	 1.0876142209	 3.3424076771	 0.0119120279	 0.506507
O	 0.0224057548	 3.8993306271	 0.0274685705	-0.339902
H	-0.9126079732	 1.7801225755	 0.0217590386	 0.171197
H	 4.3505186495	 3.7123887524	-0.020150041	 0.168216
54.4486	115.4826	237.2208	241.3207	344.1326	398.2368	530.7667	572.0041	622.719	650.058	811.0598	819.9534	914.0352	993.3215	1014.4585	1044.515	1122.7055	1146.9036	1215.9353	1398.8093	1415.3154	1497.7551	1643.6818	1835.948	1862.0784	3091.3609	3177.0485
O=CN1N=NC=NC1=O	O=Cn1nncnc1=O	
InChI=1S/C3H2N4O2/c8-2-7-3(9)4-1-5-6-7/h1-2H	InChI=1S/C3H2N4O2/c8-2-7-3(9)4-1-5-6-7/h1-2H
