10
gdb 128888	2.03576	1.95478	0.99722	5.6934	65.92	-0.3112	-0.078	0.2332	1039.0041	0.057001	-426.667277	-426.660452	-426.659507	-426.699096	23.923	
N	-0.0276168076	-1.1483044905	-0.00345342	-0.317419
C	-0.0387011153	 0.0076094893	 0.0032305344	 0.256848
C	-0.0142530453	 1.4259881514	 0.0109947427	 0.1685
N	-1.1273497099	 2.1673635787	 0.0290233939	-0.23539
N	-0.6605334891	 3.4013851306	 0.0302588431	-0.067429
N	 0.6492720544	 3.559175915	 0.0149143136	-0.235398
C	 1.1024935752	 2.3008557369	 0.0021194916	 0.168466
C	 2.4853383545	 1.9848880993	-0.016821981	 0.25687
N	 3.6049974399	 1.6977795222	-0.0323391029	-0.31742
H	-1.2833565268	 4.1965354371	 0.0425148347	 0.322371
107.7926	165.4768	203.3405	217.2835	480.939	486.2883	532.3571	559.7277	619.5989	646.6732	660.0146	722.6748	796.504	1003.7312	1159.4057	1223.4542	1268.9974	1328.4799	1434.8028	1495.1261	1527.4042	2367.3645	2371.5047	3641.4141
N#CC1=NNN=C1C#N	N#Cc1n[nH]nc1C#N	
InChI=1S/C4HN5/c5-1-3-4(2-6)8-9-7-3/h(H,7,8,9)	InChI=1S/C4HN5/c5-1-3-4(2-6)8-9-7-3/h(H,7,8,9)
