10
gdb 23793	2.29138	1.29922	0.87414	3.6775	51.75	-0.2696	-0.0459	0.2237	1168.4528	0.053543	-454.800757	-454.790953	-454.790008	-454.840268	28.504	
F	-0.2529769392	-0.1096012742	-0.0724811974	-0.085587
C	-0.2270818624	 1.2048365281	 0.2344427771	 0.422947
C	-1.5631683402	 1.7710567737	 0.1141088909	-0.468048
C	-1.7632316094	 3.0489756556	 0.3991065914	 0.485172
N	-1.9682848205	 4.1770132931	 0.7752178937	-0.480618
N	 1.0051406636	 4.7535200956	-0.8307067268	-0.014591
N	 2.0784484066	 4.5338342214	-0.9096014255	 0.014135
O	 0.7914539299	 1.741543797	 0.5430250709	-0.327494
H	-2.3876724483	 1.1581141205	-0.2239467673	 0.155792
H	-1.85885353	 4.9622402892	 0.137487873	 0.298294
15.7663	32.7881	47.1467	47.8055	77.0049	113.3996	146.3484	404.1187	481.047	510.7904	540.3028	689.6989	773.3707	844.57	907.2141	953.6299	1130.9447	1148.4784	1428.3853	1863.5223	2159.439	2434.5668	3222.0545	3530.2566	15.7668	32.788	47.1465	47.8054	77.0048	113.3998	146.348	404.1189	481.047	510.7903	540.303	689.699	773.3706	844.5701	907.2139	953.6302	1130.9449	1148.4787	1428.3852	1863.5222	2159.4391	2434.5668	3222.0545	3530.2563
FC1=CC(=N)N=NO1	FC(=O)[CH][C][NH].N#N	
InChI=1S/C3H2FN3O/c4-2-1-3(5)6-7-8-2/h1,5H	InChI=1S/C3H2FNO.N2/c4-3(6)1-2-5;1-2/h1,5H;
