10
gdb 21402	7.21548	1.39178	1.16673	1.8013	57.47	-0.2568	-0.08	0.1768	905.9751	0.06132	-409.631512	-409.62507	-409.624126	-409.662279	23.081	
N	-0.1468574849	 1.3082043264	 0.0093196371	-0.591603
C	-0.0270813926	 0.0570566618	 0.0013320634	 0.496208
N	-1.050459605	-0.880512511	 0.0020903171	-0.392851
C	-0.4756348097	-2.1208786474	-0.0084021525	 0.346188
N	 0.8200081803	-2.0779194726	-0.0166674032	-0.153715
O	 1.1291092727	-0.7071178719	-0.0102907805	-0.226591
C	-1.217498065	-3.334627636	-0.0110010269	 0.269294
N	-1.8593095408	-4.2955972615	-0.0127774154	-0.301328
H	 0.7560654703	 1.7746574442	 0.0065101662	 0.24755
H	-2.0297293053	-0.6527609821	 0.0091791847	 0.30685
120.1234	157.6238	243.9791	400.1764	421.3467	488.7806	555.3939	577.9085	687.4712	722.284	744.7556	767.0451	926.5925	941.1842	1024.978	1067.4893	1250.4873	1295.3968	1490.3426	1603.9959	1815.617	2371.7176	3551.3707	3690.4542
N=C1NC(=NO1)C#N	[NH][C@H]1NC(=NO1)C#N	
InChI=1S/C3H2N4O/c4-1-2-6-3(5)8-7-2/h(H2,5,6,7)	InChI=1S/C3H3N4O/c4-1-2-6-3(5)8-7-2/h3,5H,(H,6,7)/t3-/m0/s1
