10
gdb 8974	4.85409	0.91515	0.79252	3.259	68.84	-0.2888	-0.1036	0.1852	1304.6084	0.056781	-380.079348	-380.071185	-380.07024	-380.113353	26.423	
O	-0.4661443488	 0.4891846319	 0.8475186433	-0.210362
C	 0.0004443143	 1.1487338719	-0.0493176234	 0.027872
C	 1.2282809566	 1.9029597056	 0.0626450233	-0.04403
C	 2.2532259532	 2.5426029009	 0.1291407672	 0.134154
C	 3.465924538	 3.3316248932	 0.2246374392	 0.168625
O	 3.4457511659	 4.5102926878	 0.511290097	-0.25151
C	 4.6799844234	 2.5967508521	-0.0502019301	 0.286012
C	 5.6901725603	 1.9839859446	-0.2786188452	-0.460426
H	-0.4850403439	 1.2257236239	-1.042076356	 0.118621
H	 6.587838141	 1.4495970182	-0.4781276153	 0.231045
49.1642	86.0534	100.0027	189.7033	230.28	298.4687	312.7665	451.8672	584.3488	650.0235	667.3683	715.9287	749.3636	771.8504	992.4806	1015.8137	1196.1124	1416.4315	1728.5021	1772.8469	2219.3515	2298.1104	2937.2457	3489.7421
O=CC#CC(=O)C#C	O=CC#CC(=O)C#C	
InChI=1S/C6H2O2/c1-2-6(8)4-3-5-7/h1,5H	InChI=1S/C6H2O2/c1-2-6(8)4-3-5-7/h1,5H
