11
gdb 133477	3.6208	1.21057	1.07815	2.1442	48.66	-0.2982	-0.0316	0.2667	1026.8164	0.064746	-579.232329	-579.225356	-579.224412	-579.265665	24.483	
F	-0.2715056838	 0.0892805847	-0.185872014	-0.066126
C	-0.0402409302	 1.3902155373	 0.0257117061	 0.240966
F	 1.2864875139	 1.5607876462	 0.1323666797	-0.07527
F	-0.4536091012	 2.0506664077	-1.062095235	-0.066003
C	-0.7100274846	 1.8833388822	 1.2686361816	 0.151887
N	-2.033350527	 1.8366589374	 1.4247156405	-0.259532
N	-2.2008765313	 2.3551382245	 2.6271976439	-0.064986
N	-1.1086006778	 2.7385511603	 3.2757830437	-0.188517
C	-0.1322855394	 2.4437901405	 2.4180157101	-0.12823
H	-3.1184619993	 2.4549127276	 3.0331495712	 0.30487
H	 0.9017389506	 2.6369966316	 2.6490457722	 0.15094
18.857	151.9363	181.0016	374.3697	399.2674	412.5965	559.8504	578.7561	583.6378	724.9684	751.8388	758.4995	901.7132	992.0991	1012.4625	1125.873	1178.6432	1196.2052	1196.9843	1247.5851	1261.3146	1383.287	1409.568	1498.0772	1571.7529	3289.6172	3659.3343
FC(F)(F)C1=NNN=C1	FC(F)(F)c1n[nH]nc1	
InChI=1S/C3H2F3N3/c4-3(5,6)2-1-7-9-8-2/h1H,(H,7,8,9)	InChI=1S/C3H2F3N3/c4-3(5,6)2-1-7-9-8-2/h1H,(H,7,8,9)
