10
gdb 23760	3.38172	2.36569	1.39195	1.0658	50.79	-0.278	-0.0527	0.2252	756.6392	0.061156	-462.754284	-462.748643	-462.747699	-462.784286	20.676	
F	 0.0060157373	 0.013397379	 0.0033189813	-0.045688
C	-0.0226839831	 1.3396324368	 0.0107389039	 0.093785
C	-1.2092105913	 2.048065286	 0.0299868645	-0.079279
N	-1.2307561417	 3.3865452463	 0.0373880533	-0.241285
C	-0.04750359	 3.9904107707	 0.0251840143	 0.074385
N	 1.1525119768	 3.3974433531	 0.0063385904	-0.289317
C	 1.1550703185	 2.0887484522	-0.0006609456	 0.242602
F	 2.3171296895	 1.4643626572	-0.0191559759	-0.037278
H	-2.1573404743	 1.517157742	 0.0395312755	 0.14451
H	-0.0470685716	 5.0761068668	 0.0308986883	 0.137564
171.5169	281.4459	315.6993	468.4504	484.1303	551.9368	614.2103	618.7059	785.7807	792.2766	903.1088	952.7483	997.224	1161.7018	1224.4469	1275.6979	1322.8423	1338.6889	1447.3808	1521.6605	1609.9277	1640.7797	3175.5734	3188.4005
FC1=CN=CN=C1F	Fc1cncnc1F	
InChI=1S/C4H2F2N2/c5-3-1-7-2-8-4(3)6/h1-2H	InChI=1S/C4H2F2N2/c5-3-1-7-2-8-4(3)6/h1-2H
