10
gdb 21786	5.92324	1.68105	1.30943	3.7217	55.15	-0.2715	-0.1265	0.145	819.9828	0.060138	-409.607381	-409.601117	-409.600173	-409.638386	21.19	
O	-0.062125283	-0.0060818307	-0.0022452466	-0.205629
C	 0.0005602328	 1.1907820971	 0.0070715236	 0.124755
C	 1.2972798836	 1.9693154383	-0.0001264033	 0.303119
N	 1.1847433964	 3.2949364025	 0.0119636236	-0.24282
C	 2.3603644145	 3.9145192712	 0.0053964749	 0.116953
N	 3.5509379658	 3.3095724191	-0.0120113799	-0.152261
N	 3.5756581299	 1.9840729882	-0.0226745014	-0.038588
N	 2.4534601519	 1.2918518382	-0.0168852617	-0.183912
H	-0.8868368147	 1.8549357275	 0.022451801	 0.115917
H	 2.3708092529	 5.0009432386	 0.0128073598	 0.162467
79.7793	167.8699	215.0031	297.0306	454.5272	463.8433	674.8732	722.9673	836.8247	870.1601	940.153	995.3716	1028.9474	1047.4021	1154.9641	1275.4661	1300.4096	1396.0764	1414.0938	1523.78	1567.3447	1840.2521	2945.3655	3185.1629
O=CC1=NC=NN=N1	O=Cc1ncnnn1	
InChI=1S/C3H2N4O/c8-1-3-4-2-5-7-6-3/h1-2H	InChI=1S/C3H2N4O/c8-1-3-4-2-5-7-6-3/h1-2H
