11
gdb 21549	3.69705	1.91704	1.26345	5.2281	58.76	-0.2525	-0.0886	0.1639	855.5094	0.071783	-430.697066	-430.690264	-430.68932	-430.728196	24.215	
N	 0.0720531629	 1.382077739	 0.1426605332	-0.590818
C	-0.0323346834	 0.025184933	 0.0407715046	 0.240922
C	-1.109880403	-0.831368294	 0.0068621511	 0.262812
O	-0.6028336261	-2.0905350023	-0.0376203189	-0.188176
N	 0.7695255044	-1.9842257551	-0.0281824469	 0.021872
N	 1.1004227919	-0.759576065	 0.0165546106	-0.178006
C	-2.5434580854	-0.6045820734	 0.0125929518	 0.073351
O	-3.3920503151	-1.46512277	-0.0237861741	-0.265656
H	 0.9795890022	 1.7534749505	-0.0950152076	 0.279489
H	-0.7029094103	 1.937893706	-0.1810130941	 0.272595
H	-2.8084874681	 0.4756721914	 0.0568806704	 0.071615
138.4434	169.0961	211.9166	328.8528	346.9118	358.8847	494.4042	548.7893	662.562	682.878	750.1647	801.0154	880.434	1008.3835	1017.6507	1065.5012	1216.8111	1253.6977	1403.4537	1441.2002	1475.4286	1623.774	1682.8142	1785.5341	2872.213	3589.2252	3699.2595
NC1=C(ON=N1)C=O	Nc1c(onn1)C=O	
InChI=1S/C3H3N3O2/c4-3-2(1-7)8-6-5-3/h1H,4H2	InChI=1S/C3H3N3O2/c4-3-2(1-7)8-6-5-3/h1H,4H2
