11
gdb 24745	3.71301	1.28098	0.95241	3.2031	66.51	-0.2915	-0.115	0.1765	1094.6097	0.066717	-451.588145	-451.581025	-451.58008	-451.620602	24.563	
O	 0.0644593547	-0.0652362059	 0.0043362045	-0.281492
C	-0.0445055205	 1.141256248	 0.0076404955	 0.204665
C	 1.1504133194	 2.0093498727	 0.0011811332	 0.244656
N	 2.1053964489	 2.6602062258	-0.0040996002	-0.308093
C	-1.3246795936	 1.8279838897	 0.0186407075	 0.254983
C	-2.6165115778	 1.3793375641	 0.0272583262	-0.145856
N	-3.471184698	 2.4570577894	 0.0359901972	-0.245788
C	-2.6797891032	 3.4893801308	 0.032527148	 0.088073
O	-1.3695310106	 3.1997076345	 0.0221922845	-0.161477
H	-2.9660038869	 0.3594618177	 0.0274895256	 0.171768
H	-2.9486007424	 4.5344262732	 0.0368881082	 0.178562
73.6191	115.8535	182.1884	238.4967	307.631	458.6812	484.0853	629.6136	656.1642	670.7972	778.74	879.3525	921.5963	931.9078	948.061	1048.0398	1135.3211	1168.7141	1250.4591	1300.7976	1349.3233	1498.5343	1600.5383	1750.8654	2346.0158	3278.303	3281.8281
O=C(C#N)C1=CN=CO1	O=C(C#N)c1cnco1	
InChI=1S/C5H2N2O2/c6-1-4(8)5-2-7-3-9-5/h2-3H	InChI=1S/C5H2N2O2/c6-1-4(8)5-2-7-3-9-5/h2-3H
