11
gdb 130774	3.78179	1.27887	0.95569	5.9628	70.16	-0.2831	-0.1264	0.1567	1099.3922	0.064337	-451.499411	-451.492111	-451.491167	-451.531922	26.19	
O	-0.0431199893	-0.0501752877	 0.0041147175	-0.305407
C	 0.0135265996	 1.139929638	 0.0088891065	 0.468572
O	-1.2194721854	 1.8329672842	 0.0296030751	-0.237493
N	-1.3075531215	 3.1993144115	 0.0374938474	-0.017154
C	-0.1969812853	 3.8460861113	 0.0249772329	-0.013089
C	 1.0920896437	 3.1764463973	 0.0031521651	 0.170515
N	 1.1889720849	 1.8834980233	-0.0041970475	-0.362766
C	 2.2669107848	 3.9831355307	-0.0087867509	 0.222466
C	 3.2239903908	 4.7121527551	-0.0182346944	-0.312283
H	-0.2742860474	 4.9270282038	 0.031547525	 0.159121
H	 4.0844545152	 5.3370141926	-0.0273224467	 0.227518
65.5575	128.8298	141.2831	311.8664	436.2233	453.9813	458.1978	579.4725	585.9452	670.3174	695.1515	696.7132	737.0377	790.8024	835.6646	915.0023	930.5498	1033.1108	1123.6858	1243.2666	1359.2162	1577.2919	1657.0405	1877.1424	2232.1878	3211.9159	3493.1569
O=C1ON=CC(=N1)C#C	O=c1oncc(n1)C#C	
InChI=1S/C5H2N2O2/c1-2-4-3-6-9-5(8)7-4/h1,3H	InChI=1S/C5H2N2O2/c1-2-4-3-6-9-5(8)7-4/h1,3H
