11
gdb 131008	7.52542	0.9098	0.81167	5.0014	67.93	-0.3011	-0.1004	0.2007	1257.4512	0.066301	-447.739546	-447.732386	-447.731442	-447.771725	24.884	
O	-0.0187999364	-0.0593280376	-0.0009398659	-0.214801
C	-0.0172742331	 1.130278668	 0.0089286342	 0.204313
N	 1.1648001104	 1.9231275996	 0.0025011449	-0.013292
C	 1.2428683209	 3.2814868653	 0.012399981	-0.155446
C	 2.5872241513	 3.5425858771	 0.0002048641	 0.212921
N	 3.2667422903	 2.3349295504	-0.016873192	-0.211244
N	 2.4224200487	 1.3713242935	-0.0154834625	-0.078892
C	 3.247547302	 4.7970190345	 0.0032069203	 0.252802
N	 3.7672649725	 5.8302965424	 0.005923034	-0.317033
H	-0.9144960823	 1.7729093728	 0.0232833176	 0.128045
H	 0.3787981856	 3.923956654	 0.0267682744	 0.192628
85.2009	137.7705	193.9292	250.5743	255.3318	448.8646	516.1207	561.6474	647.9148	656.7339	731.4874	768.7049	838.6347	975.0931	1023.5538	1044.443	1149.0702	1206.7786	1241.7899	1402.4384	1414.3141	1452.6374	1578.1564	1870.3183	2364.1838	2996.0155	3290.914
O=CN1C=C(N=N1)C#N	O=Cn1cc(nn1)C#N	
InChI=1S/C4H2N4O/c5-1-4-2-8(3-9)7-6-4/h2-3H	InChI=1S/C4H2N4O/c5-1-4-2-8(3-9)7-6-4/h2-3H
