9
gdb 23836	3.44873	2.48829	1.44541	2.5355	47.96	-0.2916	-0.112	0.1796	730.1333	0.048221	-474.610059	-474.604238	-474.603294	-474.640387	20.712	
F	 0.0294398657	 0.1054728264	 0.1694126569	-0.006963
C	-0.0349339419	 1.4043949602	 0.0525722489	 0.237945
N	-1.1632111278	 1.9851251558	-0.0080036095	-0.281181
C	-1.1047099645	 3.3609447418	-0.1304707326	 0.108362
N	-0.0611481821	 4.1109922219	-0.1893947824	-0.048775
O	 1.1676663324	 3.4524305345	-0.1210174617	-0.241143
C	 1.2816350221	 2.0899109147	 0.0014803288	 0.357265
O	 2.3525891161	 1.5641858285	 0.0570771338	-0.296019
H	-2.0505477001	 3.8880380263	-0.184863762	 0.170509
108.174	251.6037	317.9291	438.7712	527.5475	542.3099	563.8044	606.048	740.3333	800.1121	917.9524	948.7179	974.474	1105.0642	1197.6184	1349.555	1391.5344	1600.7137	1705.1502	1865.3658	3213.873
FC1=NC=NOC1=O	Fc1ncnoc1=O	
InChI=1S/C3HFN2O2/c4-2-3(7)8-6-1-5-2/h1H	InChI=1S/C3HFN2O2/c4-2-3(7)8-6-1-5-2/h1H
