11
gdb 21336	6.13551	1.35826	1.21971	3.5817	55.65	-0.3124	-0.0495	0.2629	917.4488	0.073381	-393.589944	-393.583438	-393.582494	-393.622005	22.109	
N	-0.0837865757	-1.1232271398	 0.3439050764	-0.284809
C	-0.025076487	 0.0057523704	 0.1112255331	 0.271611
C	 0.0324291851	 1.4376879938	-0.1885543482	-0.437335
C	 1.4240627612	 1.9920877586	-0.1562102137	 0.440483
N	 2.0531054132	 2.5969519879	-1.1159721071	-0.302711
C	 3.2496161936	 2.9004428006	-0.5089324254	 0.045392
N	 3.3579493473	 2.5144349102	 0.7315972864	-0.096098
O	 2.1236352529	 1.8994521292	 0.9776837689	-0.18535
H	-0.3742361523	 1.6221898553	-1.1858965891	 0.198102
H	-0.5950073574	 1.9738743746	 0.5333255227	 0.190376
H	 4.0546824191	 3.4198781292	-1.0074006438	 0.160337
31.8347	110.6944	279.572	325.9536	372.8247	480.7809	654.2796	684.0048	795.4932	902.3193	932.3873	945.8459	951.1994	980.0323	1031.9273	1177.2175	1209.5613	1263.2045	1329.9352	1346.2517	1447.2428	1514.3114	1628.4866	2376.4769	3052.399	3118.5924	3267.8376
N#CCC1=NC=NO1	N#CCc1ncno1	
InChI=1S/C4H3N3O/c5-2-1-4-6-3-7-8-4/h3H,1H2	InChI=1S/C4H3N3O/c5-2-1-4-6-3-7-8-4/h3H,1H2
