11
gdb 21647	7.24744	1.37287	1.1553	3.614	61.19	-0.2388	-0.0562	0.1825	928.8292	0.075197	-389.798319	-389.791754	-389.79081	-389.828983	24.	
N	-0.0481177967	 1.3451530298	 0.1457974864	-0.590357
C	 0.0085182565	-0.0219392109	 0.0491227535	 0.402564
N	-1.0823984813	-0.79139418	 0.0159019869	-0.263015
N	-0.5485453714	-2.0332310417	-0.0112395158	-0.24481
C	 0.7990429904	-1.9630627725	-0.0013655836	 0.28534
N	 1.1910327527	-0.6970669436	 0.036020719	-0.350652
C	 1.627994186	-3.1156426299	-0.029535737	 0.250882
N	 2.2673293104	-4.0795665618	-0.0546876151	-0.322742
H	 0.7795574545	 1.815822512	-0.1864142725	 0.269118
H	-0.9124253662	 1.7571915006	-0.1711471465	 0.266327
H	-1.1443990649	-2.845011132	-0.0382812152	 0.297345
145.7993	157.9336	314.7445	339.3538	404.2886	481.0449	545.9463	554.5471	576.7149	582.7358	724.164	769.5053	790.5282	1023.5841	1074.5416	1091.1692	1194.4735	1289.808	1404.337	1457.6519	1554.7543	1575.0369	1652.1326	2357.6905	3586.4813	3662.6523	3695.9213
NC1=NNC(=N1)C#N	Nc1n[nH]c(n1)C#N	
InChI=1S/C3H3N5/c4-1-2-6-3(5)8-7-2/h(H3,5,6,7,8)	InChI=1S/C3H3N5/c4-1-2-6-3(5)8-7-2/h(H3,5,6,7,8)
