11
gdb 15482	3.12626	2.12175	1.48538	3.7113	50.91	-0.3044	-0.035	0.2693	794.2072	0.072754	-434.567836	-434.561213	-434.560268	-434.599283	22.753	
O	-0.0494614635	 0.0055283157	-0.2010612534	-0.3042
C	-0.0189889904	 1.1796781677	-0.0214710692	 0.439191
O	-1.0984666837	 1.9680280741	 0.193432886	-0.208065
C	-0.6676859735	 3.3060796053	 0.4331835762	 0.022943
O	 0.6439130392	 3.4129719293	-0.0828250099	-0.226317
C	 1.2104670962	 2.1236129181	-0.0046003316	-0.183233
C	 2.0106855941	 1.9261988996	 1.2166376996	 0.289629
N	 2.6281104413	 1.789432816	 2.1829313559	-0.300428
H	-1.3160291086	 3.9958304634	-0.1094411002	 0.153994
H	-0.6966026643	 3.498558054	 1.5137739655	 0.140167
H	 1.8327523632	 1.9443291567	-0.8848890988	 0.176318
84.7466	145.01	187.2081	263.8907	414.4884	474.5759	558.5891	690.2758	700.0692	750.0338	903.088	942.8654	996.6225	1043.2607	1096.3053	1142.8731	1216.6144	1221.6284	1251.1104	1339.8714	1437.0888	1541.8406	1920.4813	2362.3333	3025.7688	3095.996	3128.8708
O=C1OCOC1C#N	O=C1OCO[C@H]1C#N	
InChI=1S/C4H3NO3/c5-1-3-4(6)8-2-7-3/h3H,2H2	InChI=1S/C4H3NO3/c5-1-3-4(6)8-2-7-3/h3H,2H2/t3-/m0/s1
