11
gdb 25428	4.78791	1.00396	0.82993	5.1613	68.56	-0.2794	-0.0829	0.1965	1237.3039	0.066156	-451.583619	-451.576453	-451.575509	-451.615897	24.907	
O	-0.1063016761	-0.002184996	 0.0003169767	-0.236593
C	-0.0160793086	 1.1981121771	 0.0095236967	 0.078211
C	 1.2550355341	 1.942500488	 0.0007673525	 0.13608
C	 1.4181722198	 3.2999641024	 0.0104154854	-0.059575
O	 2.738052127	 3.5750319125	-0.0031776719	-0.153505
C	 3.3336515212	 2.3422550386	-0.0203133915	 0.301948
N	 2.5083127462	 1.347444026	-0.0191967167	-0.306714
C	 4.7530561463	 2.3084517663	-0.0375807766	 0.27604
N	 5.9088604089	 2.2906967492	-0.0515743554	-0.306976
H	-0.9123361336	 1.8562251738	 0.0257602939	 0.085011
H	 0.7456956448	 4.141658722	 0.0254690968	 0.186072
118.5102	126.7135	148.3952	230.1185	305.5325	474.3461	497.8708	562.5312	598.5648	652.6485	745.7521	795.9849	829.6863	958.5095	1012.36	1028.5915	1161.7179	1204.3922	1298.8566	1332.0352	1430.197	1572.417	1585.5545	1818.9575	2366.8653	2892.9952	3288.8654
O=CC1=COC(=N1)C#N	O=Cc1coc(n1)C#N	
InChI=1S/C5H2N2O2/c6-1-5-7-4(2-8)3-9-5/h2-3H	InChI=1S/C5H2N2O2/c6-1-5-7-4(2-8)3-9-5/h2-3H
