11
gdb 23808	3.47253	2.27787	1.37555	3.903	55.07	-0.2409	-0.0407	0.2001	782.2923	0.072784	-438.694859	-438.688856	-438.687911	-438.724997	22.603	
O	 0.0905957989	 1.3681809754	-0.0778154355	-0.423077
C	 0.0576495004	 0.0234381166	-0.0261357437	 0.259078
C	 0.0159212171	-0.7450930254	-1.1942845602	-0.035074
N	-0.0177634756	-2.074248745	-1.2014867165	-0.191321
N	-0.0129364184	-2.751064008	-0.056118244	-0.200396
C	 0.0260253379	-2.0803274052	 1.0967787713	-0.073943
C	 0.0620378331	-0.6977865599	 1.1554753544	 0.149834
F	 0.1010436603	-0.0339367442	 2.31814642	-0.079237
H	 0.1165354281	 1.7129386896	 0.8243042459	 0.314689
H	 0.0098559455	-0.2522932661	-2.1616575509	 0.139562
H	 0.0285869127	-2.6700711876	 2.0081244293	 0.139886
185.9839	272.3566	292.7401	427.6066	452.35	466.1435	568.8174	610.3421	615.6619	775.9012	806.2732	902.1113	928.5123	951.1928	1053.0654	1170.9855	1223.403	1276.7574	1301.7186	1331.6282	1406.0613	1522.0765	1609.9421	1638.0794	3185.3541	3188.1294	3785.2642
OC1=CN=NC=C1F	Oc1cnncc1F	
InChI=1S/C4H3FN2O/c5-3-1-6-7-2-4(3)8/h1-2H,(H,6,8)	InChI=1S/C4H3FN2O/c5-3-1-6-7-2-4(3)8/h1-2H,(H,6,8)
