11
gdb 132039	2.38193	1.84906	1.04097	4.187	56.74	-0.2569	-0.0519	0.205	989.7019	0.064644	-541.776407	-541.76957	-541.768625	-541.807971	25.17	
F	 0.0904093581	 0.0497258887	 0.0023812491	-0.014733
C	-0.0393748153	 1.3517350201	 0.010894177	 0.277342
C	-1.2224367438	 1.9971960377	 0.0306201379	-0.085828
F	-2.351813294	 1.3036410605	 0.0426311416	-0.037038
C	-1.2838384915	 3.4624197173	 0.039191929	 0.304915
O	-2.3283738365	 4.0886145372	 0.056340347	-0.363353
C	 0.0566788255	 4.066819588	 0.0234049199	-0.267917
C	 1.1682703761	 3.3201013932	 0.0041763107	 0.076482
O	 1.1519850277	 1.9586174572	-0.002498721	-0.194169
H	 0.1295627132	 5.1469940532	 0.0277663167	 0.141903
H	 2.1846559004	 3.6885228169	-0.0081411878	 0.162396
122.1283	199.628	271.1997	303.3076	337.3568	482.8463	499.1257	520.4131	575.8286	618.8885	694.6744	737.8717	847.7301	848.069	958.1654	1042.2487	1064.8541	1214.5032	1279.5141	1297.7745	1414.1356	1430.4238	1646.6447	1739.2114	1762.6816	3220.3436	3245.7581
FC1=C(F)C(=O)C=CO1	Fc1c(F)c(=O)cco1	
InChI=1S/C5H2F2O2/c6-4-3(8)1-2-9-5(4)7/h1-2H	InChI=1S/C5H2F2O2/c6-4-3(8)1-2-9-5(4)7/h1-2H
