11
gdb 130851	2.32564	1.58515	0.94265	1.1391	67.23	-0.2908	-0.1114	0.1793	1100.7592	0.065874	-451.551456	-451.544233	-451.543289	-451.583807	25.085	
O	-0.024473808	-0.0596689831	-0.0010956472	-0.249799
C	-0.0199099239	 1.1482135162	 0.0093500607	 0.064296
C	 1.218938047	 1.9369700049	 0.0025145468	-0.04783
C	 1.3833654682	 3.2990259372	 0.0126115958	 0.316956
O	 2.6882652557	 3.6124184513	 0.0004220169	-0.205817
N	 3.4317683589	 2.4341612544	-0.0179129223	-0.099792
C	 2.5621499647	 1.4599858827	-0.016196057	-0.01467
C	 0.4422801919	 4.3562817662	 0.0321164015	 0.258727
N	-0.3511696741	 5.1983445299	 0.048064606	-0.311577
H	-0.9570945029	 1.7398589301	 0.02472496	 0.108361
H	 2.8967164625	 0.4330674901	-0.0286669412	 0.181146
115.1545	130.7608	171.8887	216.7477	275.7748	443.2226	478.6636	562.1222	609.23	649.7804	730.7326	784.6274	910.3267	934.6173	958.9523	1036.7794	1142.7949	1193.8164	1256.5992	1415.8878	1425.9672	1501.9318	1619.2816	1794.3292	2355.9442	2935.8746	3263.3451
O=CC1=C(ON=C1)C#N	O=Cc1c(onc1)C#N	
InChI=1S/C5H2N2O2/c6-1-5-4(3-8)2-7-9-5/h2-3H	InChI=1S/C5H2N2O2/c6-1-5-4(3-8)2-7-9-5/h2-3H
