11
gdb 8624	2.33949	2.07664	1.4182	2.6194	53.75	-0.2902	-0.0985	0.1917	859.049	0.068146	-434.540229	-434.532146	-434.531202	-434.573228	27.245	
O	-0.0281120387	 1.4871066704	 0.1601876961	-0.417616
C	-0.0532924733	 0.1096397857	 0.0854918632	 0.067931
C	 0.6907418694	-0.3758261701	-1.187204939	 0.130604
O	 1.2460399891	 0.4264453161	-1.8854657036	-0.233486
C	 0.6744761593	-0.5484537714	 1.3140802171	 0.132956
O	 1.4235403515	 0.0715256408	 2.0030637464	-0.199153
C	-1.4226299177	-0.4372262629	 0.0333215606	 0.239695
N	-2.4716869739	-0.9211052312	 0.0040334491	-0.301807
H	 0.4963847509	 1.7907762648	-0.6005855073	 0.312565
H	 0.6795494376	-1.4601319044	-1.3927251371	 0.143838
H	 0.4364295559	-1.6211282978	 1.4670570944	 0.124473
67.3341	103.9752	170.9475	193.5025	261.6598	315.8117	340.2635	423.003	499.0802	509.7873	569.2084	706.5183	812.8769	851.0304	941.701	1025.7444	1090.4883	1224.2623	1371.2434	1393.7189	1419.8654	1817.7095	1867.9384	2350.5754	2925.553	2994.6606	3664.0465
OC(C=O)(C=O)C#N	OC(C=O)(C=O)C#N	
InChI=1S/C4H3NO3/c5-1-4(8,2-6)3-7/h2-3,8H	InChI=1S/C4H3NO3/c5-1-4(8,2-6)3-7/h2-3,8H
