11
gdb 21978	5.51228	1.65607	1.27348	4.5677	56.21	-0.2858	-0.0781	0.2078	842.8877	0.074365	-430.654601	-430.64858	-430.647636	-430.685269	21.531	
O	-0.0555413327	-0.0087629756	 0.0034172675	-0.364976
N	-0.0135924771	 1.216814021	 0.0068510926	 0.335066
O	 1.0106327953	 1.894458293	 0.0025188719	-0.375756
C	-1.2640780543	 1.913192623	 0.0167393343	 0.275711
C	-1.429146631	 3.2851077156	 0.0219091273	-0.07466
N	-2.7602241351	 3.4699906033	 0.0307681472	-0.174029
N	-3.4749307201	 2.3180521721	 0.0317062051	-0.204104
C	-2.5620036753	 1.3591138822	 0.0231541392	-0.047581
H	-0.7099274372	 4.0863694892	 0.0198538618	 0.181237
H	-3.2568468666	 4.3460726808	 0.0365092866	 0.292543
H	-2.839918036	 0.3176989853	 0.0217415664	 0.156549
91.5202	214.4439	216.9687	439.1515	545.5631	574.7969	625.8366	694.4446	778.876	832.4469	848.4072	919.7661	940.7528	1003.6148	1042.5899	1159.0715	1204.5921	1309.5646	1379.2283	1436.6376	1448.5889	1491.395	1581.6557	1624.2046	3281.0507	3292.074	3665.1352
O=N(=O)C1=CNN=C1	O=N(=O)c1c[nH]nc1	
InChI=1S/C3H3N3O2/c7-6(8)3-1-4-5-2-3/h1-2H,(H,4,5)	InChI=1S/C3H3N3O2/c7-6(8)3-1-4-5-2-3/h1-2H,(H,4,5)
