10
gdb 21971	5.58266	1.79477	1.35814	4.8413	54.13	-0.289	-0.1037	0.1853	796.3061	0.061029	-450.526336	-450.520429	-450.519485	-450.557134	20.567	
O	-0.179369103	 0.0166283994	 0.0047573143	-0.344946
N	-0.0531436326	 1.2326245508	 0.0072303055	 0.35458
O	 0.9885739446	 1.8648247764	 0.0023478199	-0.329217
C	-1.2810346245	 2.0105806002	 0.0171376307	 0.516277
N	-1.3888866749	 3.2957566271	 0.0213483244	-0.273621
C	-2.7566657368	 3.4998067939	 0.030607236	-0.097716
C	-3.3857619276	 2.293543628	 0.031278205	-0.020516
O	-2.4331836831	 1.3220285332	 0.0225473564	-0.13233
H	-3.1838064151	 4.4894857959	 0.0360482426	 0.152285
H	-4.4102532069	 1.9631445951	 0.0368722852	 0.175202
63.7011	208.9076	241.74	441.6674	536.9539	629.4513	658.7459	781.3899	800.2543	842.9932	884.6308	929.7436	972.9374	1108.658	1159.427	1163.3167	1261.952	1366.1685	1396.3214	1516.3589	1588.563	1656.4589	3273.3209	3304.9135
O=N(=O)C1=NC=CO1	O=N(=O)c1ncco1	
InChI=1S/C3H2N2O3/c6-5(7)3-4-1-2-8-3/h1-2H	InChI=1S/C3H2N2O3/c6-5(7)3-4-1-2-8-3/h1-2H
