9
gdb 128884	6.72791	0.95999	0.84012	1.228	63.99	-0.3394	-0.1233	0.2161	1196.4717	0.043223	-446.523166	-446.516377	-446.515433	-446.554932	23.313	
N	 0.0744148565	-1.1230412586	-0.004978183	-0.285139
C	-0.0034997821	 0.0295425499	 0.0027222836	 0.280271
C	-0.0874109165	 1.4481253675	 0.0120430251	 0.3477
N	-1.1543949936	 2.1867619462	 0.0304617391	-0.313264
C	-0.6075268513	 3.4470888295	 0.0305193029	 0.25898
N	 0.7085742658	 3.4802203323	 0.013310693	-0.112322
O	 1.0617903459	 2.1501896778	 0.0009362614	-0.165563
C	-1.3872080239	 4.6408164373	 0.0477829769	 0.280994
N	-2.0259867008	 5.6027369681	 0.0618328412	-0.291657
114.8059	124.322	216.7899	223.1732	459.4906	497.5308	514.2498	526.9055	599.0853	682.068	735.0162	777.349	970.4838	1020.3667	1063.8967	1261.2499	1348.8737	1494.3644	1585.815	2375.7835	2381.2537
N#CC1=NC(=NO1)C#N	N#Cc1nc(no1)C#N	
InChI=1S/C4N4O/c5-1-3-7-4(2-6)9-8-3	InChI=1S/C4N4O/c5-1-3-7-4(2-6)9-8-3
