10
gdb 23838	5.97474	1.53536	1.22147	4.2827	51.02	-0.2618	-0.0743	0.1875	833.4111	0.060107	-462.727007	-462.721363	-462.720419	-462.75699	21.078	
F	-0.006387438	 0.0676040005	 0.0039819486	-0.05859
C	-0.0081302311	 1.3924812917	 0.0103520996	 0.365045
N	-1.1871469596	 1.9646124368	 0.0290308751	-0.237452
N	-1.2545691278	 3.3006843767	 0.0367898607	-0.237453
C	-0.1391473012	 3.9887758413	 0.0254348358	 0.365045
F	-0.2707901397	 5.3070829379	 0.0343822382	-0.05859
C	 1.1485714494	 3.4405243228	 0.0056992718	-0.215823
C	 1.2178450275	 2.0677703742	-0.0022692181	-0.215822
H	 2.0242685709	 4.0772876927	-0.0024792374	 0.146819
H	 2.1531887795	 1.5225314253	-0.0173075245	 0.14682
148.7142	360.2653	365.4527	460.65	485.6072	497.2677	563.0612	643.1578	777.6173	784.6635	866.1149	880.142	985.2241	1045.8964	1118.0266	1240.3122	1284.1197	1325.2221	1391.7711	1486.5215	1606.8997	1633.046	3210.3241	3223.8185
FC1=NN=C(F)C=C1	Fc1nnc(F)cc1	
InChI=1S/C4H2F2N2/c5-3-1-2-4(6)8-7-3/h1-2H	InChI=1S/C4H2F2N2/c5-3-1-2-4(6)8-7-3/h1-2H
