11
gdb 133489	3.79353	0.69279	0.65313	3.8484	54.	-0.281	-0.0547	0.2263	1581.9275	0.060683	-583.040255	-583.031243	-583.030299	-583.079143	29.911	
N	-0.034768017	 1.3476074255	 0.010081782	-0.519704
C	 0.070338676	-0.0078888805	 0.0011466127	 0.268853
O	 1.1189545652	-0.6173608417	-0.0126019497	-0.316696
C	-1.2219553625	-0.697948207	 0.0098814975	 0.123502
C	-2.2467325646	-1.325143442	 0.0163191337	-0.181453
C	-3.4993091576	-2.0845478993	 0.0242025726	 0.265509
F	-3.2707575355	-3.4005150881	 0.0159018785	-0.060133
F	-4.2225249633	-1.8000488264	 1.1139201	-0.066191
F	-4.242323453	-1.7898325782	-1.0493571792	-0.066186
H	 0.8122497052	 1.8926365163	 0.0045240796	 0.276311
H	-0.925930713	 1.8125163714	 0.0209524422	 0.276189
0.9748	76.5092	89.8328	183.3236	190.6596	257.3165	318.1809	445.1343	460.9114	545.4876	567.1518	601.5891	620.1706	626.5715	743.6019	773.214	930.8045	1092.7972	1188.733	1196.0569	1262.5734	1347.8873	1612.23	1786.9937	2376.1309	3600.6083	3741.1509
NC(=O)C#CC(F)(F)F	NC(=O)C#CC(F)(F)F	
InChI=1S/C4H2F3NO/c5-4(6,7)2-1-3(8)9/h(H2,8,9)	InChI=1S/C4H2F3NO/c5-4(6,7)2-1-3(8)9/h(H2,8,9)
