11
gdb 21473	8.5733	1.28025	1.11391	2.3391	55.27	-0.2723	-0.0428	0.2296	959.8762	0.0739	-426.870571	-426.864033	-426.863089	-426.902635	22.047	
N	-0.1559260399	 1.2663452477	 0.0107165127	-0.416759
C	-0.0249670947	 0.0181218135	 0.0022982644	 0.111579
O	-1.1738297858	-0.7396014643	 0.007952567	-0.202553
C	-1.060332527	-2.0730144245	-0.0000701892	 0.528169
N	-2.1414953874	-2.8403982125	 0.0041102107	-0.298222
N	-1.5682577792	-4.0408308799	-0.0068644109	-0.053878
N	-0.2508072806	-4.0377669015	-0.0166169745	-0.096577
N	 0.0993923828	-2.7730709972	-0.0124447521	-0.285301
H	 0.7602535968	 1.7109002847	 0.0052368006	 0.244367
H	 0.8860152035	-0.5808061259	-0.009121859	 0.157698
H	-2.1043034585	-4.8959512001	-0.0074505497	 0.311477
38.9843	94.0767	193.2503	351.8617	476.9622	502.2642	578.4035	730.0339	776.3267	823.2475	838.7798	1017.8249	1040.1448	1058.4666	1095.0405	1158.7256	1202.1206	1258.1702	1281.8544	1369.6357	1406.2088	1504.2462	1577.1128	1756.1552	3137.0524	3520.621	3650.6916
N=COC1=NNN=N1	[NH][CH]Oc1n[nH]nn1	
InChI=1S/C2H3N5O/c3-1-8-2-4-6-7-5-2/h1,3H,(H,4,5,6,7)	InChI=1S/C2H3N5O/c3-1-8-2-4-6-7-5-2/h1,3H,(H,4,5,6,7)
