11
gdb 133315	2.40026	1.92778	1.0695	5.5671	59.68	-0.2542	-0.0947	0.1596	978.8613	0.063896	-529.940511	-529.933029	-529.932085	-529.972534	27.418	
N	 0.0217239354	 1.3657153884	 0.1242777914	-0.560487
C	-0.0291934695	 0.0120416442	 0.0447042095	 0.336427
C	-1.1717889312	-0.7252666523	 0.0227317754	 0.010796
F	-2.3568600665	-0.1186522417	 0.0326650824	-0.053894
C	-1.1313587838	-2.1573089647	-0.015483531	 0.409776
O	-2.0397709031	-2.9364588724	-0.0388753159	-0.331377
O	 0.1904347265	-2.6558816384	-0.0276714904	-0.258354
N	 1.3322548594	-1.8547321481	-0.0191437051	 0.070448
N	 1.2119071818	-0.6190404887	 0.0164875265	-0.189853
H	 0.9035870626	 1.8040747398	-0.0854998821	 0.283194
H	-0.8178916915	 1.8897026838	-0.0564266507	 0.283326
111.2651	165.6852	261.8846	289.3136	312.6912	356.776	443.7739	491.8569	518.2133	548.0506	550.9814	671.4212	698.3288	752.4655	806.6349	919.032	1000.6045	1033.8547	1240.0726	1352.977	1410.1304	1566.9944	1624.2831	1714.1757	1866.8574	3607.011	3731.6013
NC1=C(F)C(=O)ON=N1	Nc1c(F)c(=O)onn1	
InChI=1S/C3H2FN3O2/c4-1-2(5)6-7-9-3(1)8/h5H2	InChI=1S/C3H2FN3O2/c4-1-2(5)6-7-9-3(1)8/h5H2
