11
gdb 130823	4.54695	1.05713	0.85772	2.4621	60.36	-0.2656	-0.1182	0.1475	1191.0854	0.06348	-488.662447	-488.654797	-488.653853	-488.695751	25.825	
O	-0.0681900516	 0.0214460057	 0.0025162875	-0.203487
C	-0.0247491278	 1.2197315066	 0.0083729422	 0.080711
C	 1.3338048493	 1.9629556171	-0.0020786023	 0.20133
O	 2.3786878442	 1.3537850987	-0.0160761227	-0.280416
C	 1.2926667671	 3.4313173153	 0.0060726414	 0.155978
C	 2.334781263	 4.3234337084	-0.0001080393	 0.016472
O	 1.8764466371	 5.5478905697	 0.0108844721	-0.159945
N	 0.394750154	 5.4165962738	 0.0259506456	 0.009015
N	 0.144211226	 4.2012269365	 0.0221061586	-0.153089
H	-0.9310057036	 1.8561327536	 0.0212059534	 0.125234
H	 3.4026029323	 4.1699915145	-0.0120892264	 0.208196
60.5939	90.4672	148.1251	204.2081	289.5567	387.5048	411.1055	486.8307	554.7243	644.8637	708.7867	833.7141	921.9397	932.2618	968.2473	1013.8009	1066.5379	1169.2263	1278.4235	1359.9586	1410.4409	1518.4676	1555.9729	1780.431	1837.3992	2951.3941	3279.6671
O=CC(=O)C1=CON=N1	O=CC(=O)c1conn1	
InChI=1S/C4H2N2O3/c7-1-4(8)3-2-9-6-5-3/h1-2H	InChI=1S/C4H2N2O3/c7-1-4(8)3-2-9-6-5-3/h1-2H
