10
gdb 21677	7.41937	1.38974	1.17134	4.3437	57.15	-0.2663	-0.083	0.1833	908.0588	0.061884	-409.64568	-409.639252	-409.638308	-409.676278	23.119	
N	 0.004961214	 1.3545150083	 0.1399279875	-0.592706
C	-0.0180120961	-0.0025107001	 0.0401330399	 0.417435
N	-1.1265535389	-0.7172114554	-0.0103749666	-0.17796
O	-0.655133952	-2.0374501238	-0.0348441151	-0.191538
C	 0.6767392246	-1.953257846	-0.0069102456	 0.356276
N	 1.1447657199	-0.7433290887	 0.0388292517	-0.341272
C	 1.4232826741	-3.164850246	-0.0301602734	 0.277214
N	 2.02471681	-4.1514275662	-0.0501841328	-0.304997
H	 0.8606013817	 1.7945519281	-0.1587857696	 0.279336
H	-0.8432310773	 1.8354811898	-0.115223406	 0.278211
143.978	161.3727	309.2324	357.2299	412.0237	479.47	494.9964	560.1451	581.6686	719.23	768.6477	782.6166	936.9022	1030.0261	1062.2155	1118.75	1293.4544	1426.2496	1570.3106	1616.1551	1660.0723	2370.3783	3597.6528	3711.2647
NC1=NOC(=N1)C#N	Nc1noc(n1)C#N	
InChI=1S/C3H2N4O/c4-1-2-6-3(5)7-8-2/h(H2,5,7)	InChI=1S/C3H2N4O/c4-1-2-6-3(5)7-8-2/h(H2,5,7)
