11
gdb 130773	3.7681	1.21801	0.92048	1.4531	67.48	-0.297	-0.1306	0.1664	1121.6685	0.06602	-451.553937	-451.546945	-451.546001	-451.585844	25.154	
O	-0.0199799979	-0.0653696239	 0.0039371893	-0.309211
C	 0.0164693082	 1.1317944319	 0.0089916348	 0.482838
O	-1.1954296901	 1.8272318824	 0.0291658782	-0.254275
N	-1.3026960493	 3.2019985698	 0.0371149558	-0.034741
C	-0.212498514	 3.8847935689	 0.0251275324	-0.015634
C	 1.1129149037	 3.3030078167	 0.0039325425	 0.184571
C	 1.2193855435	 1.9554232466	-0.0038831519	-0.340235
C	 2.252973591	 4.165245233	-0.0078904498	 0.238502
N	 3.1611600575	 4.8816633555	-0.0171670257	-0.294866
H	-0.3462336142	 4.9608560615	 0.0320428024	 0.170332
H	 2.1684406115	 1.4351647574	-0.019540028	 0.17272
132.8377	134.3391	149.3373	326.5909	423.736	443.8872	477.7711	557.7459	585.0319	693.8235	699.997	728.7565	859.7229	920.6522	935.2278	938.8761	1021.2722	1154.202	1198.8467	1323.3963	1369.5127	1592.7819	1671.8837	1849.6772	2352.5438	3206.6564	3230.2199
O=C1ON=CC(=C1)C#N	O=c1oncc(c1)C#N	
InChI=1S/C5H2N2O2/c6-2-4-1-5(8)9-7-3-4/h1,3H	InChI=1S/C5H2N2O2/c6-2-4-1-5(8)9-7-3-4/h1,3H
