9
gdb 21762	5.94902	2.40366	1.71195	3.9151	49.11	-0.3049	-0.0761	0.2289	641.6143	0.050892	-425.619995	-425.615165	-425.614221	-425.648984	17.82	
O	-0.0162164399	 1.3181617678	 0.0093419115	-0.22748
N	 1.3367527238	 1.7727196296	-0.0010315471	-0.09554
C	 2.0840005471	 0.712103124	-0.0140759627	 0.073825
N	 1.3115337935	-0.4218843032	-0.0130007507	-0.000788
N	 1.3211464381	-1.7892039738	-0.0206143745	-0.142723
N	 0.0651375481	-2.1109308828	-0.0107202216	-0.069637
N	-0.7896190793	-1.0360395149	 0.0035431801	-0.339444
C	 0.0276853069	-0.0143945617	 0.0014668591	 0.58997
H	 3.1614633819	 0.742483985	-0.0241441307	 0.211817
218.871	352.1485	459.1121	602.8321	690.9271	696.5219	772.8515	801.687	854.634	871.4529	972.9554	982.6844	1097.8803	1164.704	1208.3387	1301.5542	1391.3125	1435.1698	1551.8563	1619.2043	3292.3141
O1N=CN2N=NN=C12	o1ncn2nnnc12	
InChI=1S/C2HN5O/c1-3-8-2-4-5-6-7(1)2/h1H	InChI=1S/C2HN5O/c1-3-8-2-4-5-6-7(1)2/h1H
