9
gdb 23630	4.26946	2.00741	1.36542	4.7063	46.29	-0.2883	-0.0704	0.2179	762.5277	0.049066	-474.664497	-474.658737	-474.657793	-474.695145	20.133	
F	 0.0861084002	 0.0844133273	 0.0019946702	-0.021918
C	-0.060241002	 1.377986649	 0.0114105966	 0.426533
N	-1.1899315783	 1.9316147334	 0.0296207132	-0.388482
C	-1.220229846	 3.3521007319	 0.0379115366	 0.416686
O	-2.2495321576	 3.9601141222	 0.0554416679	-0.293656
N	 0.0414517444	 4.0328440207	 0.02425712	-0.271797
C	 1.0932081284	 3.3405457292	 0.0062153761	 0.139348
O	 1.1522779427	 1.9606818552	-0.0019203314	-0.184252
H	 2.0957337981	 3.7552228611	-0.0052428492	 0.177539
71.5306	203.2275	400.0003	429.8295	545.7481	564.4399	594.6777	743.4304	789.0081	823.5891	913.451	956.824	971.1712	1036.2041	1238.2258	1341.8607	1401.7511	1664.8273	1774.9484	1862.8458	3209.8094
FC1=NC(=O)N=CO1	Fc1nc(=O)nco1	
InChI=1S/C3HFN2O2/c4-2-6-3(7)5-1-8-2/h1H	InChI=1S/C3HFN2O2/c4-2-6-3(7)5-1-8-2/h1H
