11
gdb 131069	5.79141	1.01224	0.86449	1.9133	61.38	-0.2777	-0.1098	0.1679	1187.3847	0.06422	-484.820684	-484.813418	-484.812474	-484.853544	24.682	
O	 0.0410438849	-0.0464721131	 0.1332422382	-0.221579
C	-0.0348573567	 1.1234544999	-0.0326449216	 0.173646
O	 1.0941114954	 1.9219891835	 0.1622725896	-0.232086
C	 0.9957253382	 3.2664030254	 0.0987887204	 0.487946
C	 2.1718292964	 4.0125030219	-0.0469691833	-0.028492
N	 2.1012008381	 5.3251789151	-0.0803825684	-0.150899
N	 0.894874449	 5.9095898993	 0.0093400997	-0.048368
N	-0.1933017419	 5.2064956783	 0.140799717	-0.048644
N	-0.1687747326	 3.8693014475	 0.202605554	-0.262975
H	-0.9095940538	 1.7014620167	-0.3502799865	 0.16147
H	 3.1479665329	 3.5444937656	-0.1280490291	 0.169981
64.6707	91.7025	161.985	208.1754	342.2083	402.1962	491.8504	557.6438	659.5631	729.5914	828.3963	869.2475	964.488	974.9219	1021.5214	1034.305	1068.4464	1099.6365	1217.2711	1309.7238	1385.0202	1409.963	1539.6844	1577.5112	1891.6913	3099.0844	3188.6934
O=COC1=CN=NN=N1	O=COc1cnnnn1	
InChI=1S/C3H2N4O2/c8-2-9-3-1-4-6-7-5-3/h1-2H	InChI=1S/C3H2N4O2/c8-2-9-3-1-4-6-7-5-3/h1-2H
