9
gdb 21758	3.9347	2.01558	1.33283	4.2995	58.46	-0.2596	-0.105	0.1545	789.0451	0.048724	-429.492222	-429.486194	-429.48525	-429.522752	21.191	
O	-0.0791743742	 1.5333752583	 0.0109426462	-0.231019
N	 1.2956576135	 1.8379797147	-0.0006618678	-0.082731
C	 1.9512860452	 0.7254321258	-0.0127207342	-0.025832
C	 1.0582512295	-0.3941747969	-0.0101118581	 0.117722
C	-0.3012427442	 0.1660025982	 0.0061041972	 0.468161
O	-1.3865952924	-0.335063195	 0.014002178	-0.348448
N	 1.5786412364	-2.7679804721	-0.0282876264	-0.178309
N	 1.3371045877	-1.6657822152	-0.0195452172	 0.116942
H	 3.0319567485	 0.7221684821	-0.0230442178	 0.163514
149.3796	150.1398	249.0467	428.5447	539.3585	544.4414	580.7015	626.9378	739.3329	748.5238	874.2978	878.1092	897.3898	1071.7029	1234.5468	1257.006	1461.4292	1590.5949	1873.9526	2246.3995	3245.3913
O1N=CC2=C1ON=N2	O1N=C[C](C1=O)[N][N]	
InChI=1S/C3HN3O2/c1-2-3(7-4-1)8-6-5-2/h1H	InChI=1S/C3HN3O2/c4-6-2-1-5-8-3(2)7/h1H
