9
gdb 21981	5.76455	1.78025	1.36019	2.594	48.57	-0.3245	-0.1276	0.1969	780.0555	0.048818	-466.545965	-466.540112	-466.539168	-466.577027	19.71	
O	-0.1432471078	 0.0165560128	 0.0040243078	-0.322123
N	-0.029536285	 1.2300614557	 0.0069985254	 0.356128
O	 0.9945182708	 1.8848905043	 0.0025125259	-0.311776
C	-1.2826396727	 1.993636129	 0.017403618	 0.558637
N	-1.4050262252	 3.2776104107	 0.0223311863	-0.283344
C	-2.772773026	 3.3955989582	 0.0313553459	 0.063617
N	-3.4287004842	 2.2621414194	 0.0319011428	-0.079667
O	-2.4146363998	 1.3038734181	 0.0223564402	-0.158548
H	-3.2898449403	 4.343651682	 0.0377084778	 0.177078
45.2537	214.6268	234.9077	429.6077	529.8782	638.6454	663.2642	803.5835	843.2024	920.4806	936.9717	972.614	1022.9932	1189.6067	1258.33	1311.0255	1387.6352	1466.2792	1615.1764	1673.3536	3271.0227
O=N(=O)C1=NC=NO1	O=N(=O)c1ncno1	
InChI=1S/C2HN3O3/c6-5(7)2-3-1-4-8-2/h1H	InChI=1S/C2HN3O3/c6-5(7)2-3-1-4-8-2/h1H
