10
gdb 21733	5.63395	2.32031	1.64346	2.0649	53.32	-0.2603	-0.052	0.2083	675.3669	0.063339	-413.438627	-413.433766	-413.432822	-413.467572	18.712	
O	-0.0100977866	 1.2609331009	 0.0089535369	-0.171207
C	 1.2523363975	 1.7513568738	-0.0004980644	-0.027157
C	 2.1156231302	 0.7016993918	-0.0143946069	 0.137697
N	 3.4365322662	 0.2465555707	-0.0294764207	-0.332553
C	 3.2967309424	-1.0326935562	-0.0350033587	 0.06352
O	 2.0031503893	-1.5443969094	-0.025377591	-0.205652
C	 1.2542732235	-0.4136755685	-0.0121392882	 0.456247
N	-0.0211219862	-0.1527312884	 0.0014663859	-0.261612
H	 1.3339625055	 2.8256901481	 0.0044866867	 0.170898
H	 4.0760732482	-1.7798991528	-0.0464725496	 0.169818
278.325	348.6124	509.9416	574.3145	625.7073	716.3132	752.207	777.3108	819.7852	869.6185	883.5365	908.9253	978.921	1036.2068	1113.2389	1166.7966	1289.369	1323.3243	1436.0359	1558.1949	1594.0688	1684.4083	3274.4564	3282.9932
O1C=C2N=COC2=N1	o1cc2ncoc2n1	
InChI=1S/C4H2N2O2/c1-3-4(6-8-1)7-2-5-3/h1-2H	InChI=1S/C4H2N2O2/c1-3-4(6-8-1)7-2-5-3/h1-2H
